/*--------------------------------*- C++ -*----------------------------------*\
| =========                 |                                                 |
| \\      /  F ield         | OpenFOAM: The Open Source CFD Toolbox           |
|  \\    /   O peration     | Version:  2212                                  |
|   \\  /    A nd           | Website:  www.openfoam.com                      |
|    \\/     M anipulation  |                                                 |
\*---------------------------------------------------------------------------*/
FoamFile
{
    version     2.0;
    format      ascii;
    arch        "LSB;label=32;scalar=64";
    class       volScalarField;
    location    "0";
    object      p;
}
// * * * * * * * * * * * * * * * * * * * * * * * * * * * * * * * * * * * * * //

dimensions      [0 2 -2 0 0 0 0];

internalField   nonuniform List<scalar> 
179928
(
-3.13703e-09
-1.09962e-09
-1.14403e-10
5.08047e-11
1.3592e-10
1.73814e-10
1.92005e-10
1.97101e-10
1.85784e-10
1.69958e-10
1.93417e-10
1.80549e-10
1.59839e-10
1.53085e-10
1.41313e-10
1.32438e-10
1.22901e-10
1.15134e-10
1.06917e-10
1.11229e-10
8.86636e-11
6.00902e-11
7.46037e-11
6.77745e-11
6.26574e-11
5.95331e-11
6.23494e-11
6.85642e-11
1.84399e-10
1.47117e-10
-1.29617e-09
-6.72177e-10
-1.48744e-10
5.16735e-11
1.40066e-10
1.77721e-10
1.92722e-10
1.95218e-10
1.90338e-10
1.83822e-10
1.82367e-10
1.76387e-10
1.63331e-10
1.52573e-10
1.42016e-10
1.32303e-10
1.23347e-10
1.15482e-10
1.08661e-10
1.00602e-10
8.71714e-11
7.4976e-11
7.05353e-11
6.56983e-11
6.08689e-11
5.66851e-11
5.24564e-11
4.75808e-11
5.76921e-11
4.63918e-11
-1.07234e-09
-3.21716e-10
5.58124e-11
1.21049e-10
1.66007e-10
1.89817e-10
1.99366e-10
1.99348e-10
1.94028e-10
1.88369e-10
1.82632e-10
1.74249e-10
1.63247e-10
1.52484e-10
1.42263e-10
1.32523e-10
1.23378e-10
1.14745e-10
1.0681e-10
9.82281e-11
8.79107e-11
7.74271e-11
7.02925e-11
6.49116e-11
5.87687e-11
5.23662e-11
4.55343e-11
4.06396e-11
4.46868e-11
4.6273e-12
-7.38115e-10
-3.16316e-11
2.15691e-10
1.99155e-10
2.03729e-10
2.0933e-10
2.10619e-10
2.06054e-10
1.99081e-10
1.92336e-10
1.83469e-10
1.73832e-10
1.63107e-10
1.52481e-10
1.42264e-10
1.32418e-10
1.2301e-10
1.13943e-10
1.0536e-10
9.66747e-11
8.76515e-11
7.89186e-11
7.00932e-11
6.46961e-11
5.78794e-11
5.11251e-11
4.59671e-11
4.81093e-11
5.71794e-11
-3.25816e-12
-4.77451e-10
1.17617e-10
2.89029e-10
2.5622e-10
2.40362e-10
2.31086e-10
2.23739e-10
2.15604e-10
2.05233e-10
1.94894e-10
1.84894e-10
1.74306e-10
1.63377e-10
1.52572e-10
1.42159e-10
1.32113e-10
1.22494e-10
1.13214e-10
1.0431e-10
9.55247e-11
8.66892e-11
7.83816e-11
7.17644e-11
6.47791e-11
5.78285e-11
5.13985e-11
4.78903e-11
4.44819e-11
4.96679e-11
1.3651e-11
-6.29657e-10
6.59415e-11
3.17916e-10
2.82084e-10
2.63242e-10
2.51752e-10
2.36599e-10
2.24309e-10
2.107e-10
1.97771e-10
1.86668e-10
1.7527e-10
1.6394e-10
1.52751e-10
1.4203e-10
1.31738e-10
1.21936e-10
1.12547e-10
1.03499e-10
9.46219e-11
8.58062e-11
7.75897e-11
7.18406e-11
6.48344e-11
5.88759e-11
5.24584e-11
3.9045e-11
3.99831e-11
5.15602e-11
1.27215e-11
-7.972e-10
-4.54688e-11
2.90792e-10
2.95931e-10
2.80693e-10
2.5871e-10
2.45098e-10
2.315e-10
2.15917e-10
2.01544e-10
1.88139e-10
1.76127e-10
1.6442e-10
1.52894e-10
1.41855e-10
1.31326e-10
1.21325e-10
1.11803e-10
1.026e-10
9.34581e-11
8.51384e-11
7.78295e-11
7.16794e-11
6.52699e-11
5.50357e-11
4.9247e-11
4.75238e-11
4.22498e-11
4.60486e-11
8.64817e-12
-9.15118e-10
-1.41787e-10
2.51608e-10
2.85725e-10
2.83304e-10
2.68807e-10
2.50769e-10
2.34504e-10
2.19624e-10
2.04425e-10
1.90159e-10
1.76983e-10
1.64611e-10
1.52815e-10
1.41608e-10
1.30885e-10
1.20633e-10
1.10867e-10
1.01651e-10
9.29512e-11
8.5052e-11
7.77318e-11
7.13693e-11
6.3669e-11
5.82882e-11
5.22445e-11
4.67782e-11
4.2177e-11
4.48174e-11
8.90145e-12
-9.94735e-10
-2.02513e-10
2.2036e-10
2.71381e-10
2.79834e-10
2.68658e-10
2.53565e-10
2.3775e-10
2.21496e-10
2.05996e-10
1.91353e-10
1.7762e-10
1.64771e-10
1.52709e-10
1.41352e-10
1.30461e-10
1.2001e-10
1.10066e-10
1.00903e-10
9.24118e-11
8.46492e-11
7.74717e-11
7.15944e-11
6.57524e-11
5.87094e-11
5.45724e-11
4.88071e-11
4.26944e-11
4.66862e-11
1.04687e-11
-1.05011e-09
-2.27316e-10
2.06227e-10
2.59007e-10
2.70454e-10
2.64949e-10
2.52607e-10
2.38034e-10
2.22314e-10
2.06705e-10
1.91921e-10
1.78036e-10
1.64847e-10
1.52582e-10
1.41082e-10
1.30052e-10
1.19448e-10
1.09412e-10
1.00265e-10
9.18802e-11
8.41628e-11
7.73983e-11
7.16407e-11
6.58702e-11
6.01162e-11
5.50202e-11
5.07027e-11
4.97969e-11
5.28821e-11
2.50735e-12
-1.05507e-09
-2.40742e-10
1.88418e-10
2.41709e-10
2.59268e-10
2.58735e-10
2.49823e-10
2.36933e-10
2.22071e-10
2.06827e-10
1.92169e-10
1.78127e-10
1.64871e-10
1.52467e-10
1.40813e-10
1.29668e-10
1.18976e-10
1.08923e-10
9.97194e-11
9.13561e-11
8.3803e-11
7.72162e-11
7.15967e-11
6.6182e-11
6.06079e-11
5.48911e-11
4.96662e-11
4.78532e-11
5.3766e-11
-4.89564e-12
-1.03232e-09
-2.74826e-10
1.56035e-10
2.24156e-10
2.4871e-10
2.52374e-10
2.46203e-10
2.3508e-10
2.21268e-10
2.06592e-10
1.91999e-10
1.78057e-10
1.64857e-10
1.52383e-10
1.40595e-10
1.29353e-10
1.18626e-10
1.08571e-10
9.93069e-11
9.08693e-11
8.34215e-11
7.70579e-11
7.15405e-11
6.64565e-11
6.09496e-11
5.53323e-11
5.06555e-11
4.86324e-11
3.63353e-11
-7.06934e-12
-1.05348e-09
-3.20068e-10
1.24432e-10
2.07748e-10
2.39067e-10
2.46416e-10
2.42542e-10
2.33048e-10
2.2031e-10
2.06072e-10
1.91712e-10
1.77931e-10
1.64819e-10
1.52348e-10
1.4049e-10
1.29181e-10
1.18423e-10
1.08333e-10
9.90041e-11
9.05206e-11
8.31105e-11
7.68953e-11
7.15711e-11
6.65639e-11
6.11916e-11
5.54972e-11
5.05227e-11
4.59243e-11
3.13769e-11
6.24532e-12
-1.07596e-09
-3.51423e-10
9.9957e-11
1.93783e-10
2.30745e-10
2.4126e-10
2.39434e-10
2.31273e-10
2.19341e-10
2.05558e-10
1.91461e-10
1.77849e-10
1.64845e-10
1.52417e-10
1.4054e-10
1.29189e-10
1.18394e-10
1.08247e-10
9.88494e-11
9.03249e-11
8.29261e-11
7.67951e-11
7.15782e-11
6.66801e-11
6.13575e-11
5.55704e-11
5.06135e-11
4.62147e-11
3.25997e-11
5.254e-12
-1.09997e-09
-3.70307e-10
8.6182e-11
1.84358e-10
2.24742e-10
2.37515e-10
2.37193e-10
2.29995e-10
2.18677e-10
2.05231e-10
1.91355e-10
1.77905e-10
1.65017e-10
1.5265e-10
1.40779e-10
1.29404e-10
1.18566e-10
1.08356e-10
9.88794e-11
9.02886e-11
8.28729e-11
7.67864e-11
7.16485e-11
6.67643e-11
6.14678e-11
5.57456e-11
5.09673e-11
4.67981e-11
3.21412e-11
4.72302e-12
-1.11305e-09
-3.79006e-10
8.07937e-11
1.80158e-10
2.21842e-10
2.35664e-10
2.36119e-10
2.29478e-10
2.18468e-10
2.05239e-10
1.9151e-10
1.78173e-10
1.65378e-10
1.53076e-10
1.41232e-10
1.29843e-10
1.18954e-10
1.08666e-10
9.91028e-11
9.0436e-11
8.29752e-11
7.68712e-11
7.17435e-11
6.68798e-11
6.15044e-11
5.59056e-11
5.1222e-11
4.70557e-11
3.22921e-11
4.80307e-12
-1.11136e-09
-3.75462e-10
8.26964e-11
1.8108e-10
2.22222e-10
2.35943e-10
2.36407e-10
2.29757e-10
2.18817e-10
2.05661e-10
1.91989e-10
1.78696e-10
1.65949e-10
1.53708e-10
1.41907e-10
1.30509e-10
1.19557e-10
1.09176e-10
9.95206e-11
9.07785e-11
8.32453e-11
7.70638e-11
7.18342e-11
6.69105e-11
6.16182e-11
5.59556e-11
5.12592e-11
4.70509e-11
3.24806e-11
4.97893e-12
-1.09319e-09
-3.60694e-10
9.35617e-11
1.87027e-10
2.25582e-10
2.38135e-10
2.37948e-10
2.30916e-10
2.19739e-10
2.06489e-10
1.92777e-10
1.79469e-10
1.66739e-10
1.54545e-10
1.42791e-10
1.31389e-10
1.20365e-10
1.09883e-10
1.00129e-10
9.12921e-11
8.36612e-11
7.73583e-11
7.19904e-11
6.69364e-11
6.15593e-11
5.59052e-11
5.1182e-11
4.69864e-11
3.25984e-11
5.26993e-12
-1.07123e-09
-3.28481e-10
1.13848e-10
1.96826e-10
2.31237e-10
2.41881e-10
2.40656e-10
2.32771e-10
2.21143e-10
2.07666e-10
1.93842e-10
1.80468e-10
1.6772e-10
1.55555e-10
1.43856e-10
1.32455e-10
1.21352e-10
1.10765e-10
1.00913e-10
9.19686e-11
8.42148e-11
7.77477e-11
7.21637e-11
6.69799e-11
6.13812e-11
5.56773e-11
5.07599e-11
4.65704e-11
3.52806e-11
5.84493e-12
-1.06296e-09
-2.90685e-10
1.39832e-10
2.09578e-10
2.38809e-10
2.46893e-10
2.44156e-10
2.35282e-10
2.22818e-10
2.09052e-10
1.95143e-10
1.81644e-10
1.68823e-10
1.56683e-10
1.45061e-10
1.33674e-10
1.22487e-10
1.11776e-10
1.0184e-10
9.28201e-11
8.48902e-11
7.81348e-11
7.24256e-11
6.70051e-11
6.12651e-11
5.53601e-11
5.01327e-11
4.69718e-11
3.99715e-11
4.33351e-12
-1.08392e-09
-2.6585e-10
1.65814e-10
2.243e-10
2.47994e-10
2.52846e-10
2.48023e-10
2.3792e-10
2.24701e-10
2.10477e-10
1.96524e-10
1.82947e-10
1.70007e-10
1.57895e-10
1.46353e-10
1.34982e-10
1.2374e-10
1.12904e-10
1.02909e-10
9.3828e-11
8.56077e-11
7.85611e-11
7.26623e-11
6.70049e-11
6.13097e-11
5.54505e-11
5.01498e-11
4.72253e-11
4.36239e-11
-5.45968e-13
-9.81414e-10
-2.24043e-10
1.74415e-10
2.3696e-10
2.58266e-10
2.5914e-10
2.5145e-10
2.39968e-10
2.26327e-10
2.12108e-10
1.97887e-10
1.84234e-10
1.71274e-10
1.59179e-10
1.47655e-10
1.36297e-10
1.25067e-10
1.14181e-10
1.04116e-10
9.48903e-11
8.65734e-11
7.91228e-11
7.26443e-11
6.66238e-11
6.10578e-11
5.61041e-11
5.10611e-11
4.52479e-11
4.15015e-11
9.37295e-13
-9.32167e-10
-1.87561e-10
1.92568e-10
2.46654e-10
2.66288e-10
2.64532e-10
2.54648e-10
2.4126e-10
2.27699e-10
2.13203e-10
1.9892e-10
1.85284e-10
1.72523e-10
1.60476e-10
1.48935e-10
1.37595e-10
1.26419e-10
1.15566e-10
1.05319e-10
9.58781e-11
8.72658e-11
7.99344e-11
7.26132e-11
6.61253e-11
6.03912e-11
5.56673e-11
4.7725e-11
4.0937e-11
4.30049e-11
7.19703e-12
-9.54592e-10
-1.79068e-10
2.14142e-10
2.6185e-10
2.73357e-10
2.67309e-10
2.56126e-10
2.42258e-10
2.27652e-10
2.13146e-10
1.9933e-10
1.86151e-10
1.73723e-10
1.61736e-10
1.50179e-10
1.38863e-10
1.27775e-10
1.17022e-10
1.0664e-10
9.67119e-11
8.7662e-11
7.96229e-11
7.29155e-11
6.65194e-11
6.08323e-11
5.27319e-11
4.78807e-11
4.18009e-11
4.47376e-11
8.17978e-12
-9.83815e-10
-1.7767e-10
2.32481e-10
2.72194e-10
2.77178e-10
2.68347e-10
2.55121e-10
2.41601e-10
2.27199e-10
2.12612e-10
1.99446e-10
1.87034e-10
1.74812e-10
1.62867e-10
1.51358e-10
1.40065e-10
1.29086e-10
1.18434e-10
1.08116e-10
9.79162e-11
8.81487e-11
7.97811e-11
7.31918e-11
6.64625e-11
5.93376e-11
5.46201e-11
4.76588e-11
4.17294e-11
4.58529e-11
8.17947e-12
-9.98548e-10
-1.71738e-10
2.44674e-10
2.75309e-10
2.74791e-10
2.66266e-10
2.52024e-10
2.38828e-10
2.25285e-10
2.12668e-10
2.00144e-10
1.87684e-10
1.7556e-10
1.63769e-10
1.52385e-10
1.41174e-10
1.30245e-10
1.19604e-10
1.09378e-10
9.94804e-11
9.00941e-11
8.08753e-11
7.32103e-11
6.56691e-11
5.98576e-11
5.46293e-11
4.71476e-11
4.27435e-11
4.67671e-11
7.62731e-12
-9.78506e-10
-1.5359e-10
2.42557e-10
2.64497e-10
2.64322e-10
2.59708e-10
2.46773e-10
2.34625e-10
2.23324e-10
2.12802e-10
2.00717e-10
1.88506e-10
1.76331e-10
1.64597e-10
1.53285e-10
1.42148e-10
1.313e-10
1.20773e-10
1.10817e-10
1.0126e-10
9.20045e-11
8.2759e-11
7.30951e-11
6.57489e-11
6.18171e-11
5.51867e-11
4.30398e-11
4.35857e-11
4.89712e-11
8.29777e-12
-9.62053e-10
-1.54646e-10
2.0766e-10
2.35276e-10
2.48732e-10
2.45552e-10
2.4112e-10
2.32543e-10
2.21638e-10
2.12123e-10
2.01102e-10
1.89609e-10
1.77259e-10
1.65345e-10
1.53992e-10
1.42865e-10
1.32175e-10
1.2195e-10
1.12519e-10
1.03099e-10
9.34238e-11
8.36821e-11
7.41654e-11
6.68628e-11
5.77073e-11
5.4884e-11
5.37353e-11
5.43119e-11
4.27082e-11
1.40025e-11
-9.93322e-10
-2.78205e-10
1.0387e-10
1.93558e-10
2.29824e-10
2.39162e-10
2.36921e-10
2.30263e-10
2.20011e-10
2.10447e-10
2.01819e-10
1.91241e-10
1.78193e-10
1.65881e-10
1.54425e-10
1.43126e-10
1.32695e-10
1.22972e-10
1.14377e-10
1.05316e-10
9.41609e-11
8.32822e-11
7.47819e-11
6.52917e-11
5.54812e-11
6.42007e-11
6.5619e-11
6.10558e-11
6.71859e-11
3.45476e-11
-2.13511e-09
-8.73016e-10
2.19409e-11
1.86299e-10
2.24089e-10
2.37538e-10
2.3684e-10
2.30122e-10
2.16996e-10
2.06257e-10
2.04225e-10
1.95099e-10
1.78183e-10
1.66044e-10
1.54578e-10
1.42772e-10
1.32666e-10
1.23387e-10
1.15829e-10
1.10997e-10
9.26213e-11
8.05817e-11
7.55393e-11
6.85522e-11
4.59988e-11
7.57122e-11
8.58658e-11
9.63536e-11
1.37039e-10
1.25307e-10
-1.50548e-09
-7.11535e-10
-1.61531e-10
3.89741e-11
1.33801e-10
1.74731e-10
1.91275e-10
1.94044e-10
1.88275e-10
1.84999e-10
1.84544e-10
1.74861e-10
1.6317e-10
1.5218e-10
1.41715e-10
1.32317e-10
1.23293e-10
1.15323e-10
1.07581e-10
1.00933e-10
8.94286e-11
7.43909e-11
6.95236e-11
6.52701e-11
6.06395e-11
5.58379e-11
5.2519e-11
5.20071e-11
6.85051e-11
3.23127e-11
-2.45393e-10
-3.58314e-10
-1.60668e-10
4.73158e-11
1.39508e-10
1.78087e-10
1.92756e-10
1.95047e-10
1.91576e-10
1.87792e-10
1.82098e-10
1.73502e-10
1.63352e-10
1.52532e-10
1.4204e-10
1.32399e-10
1.23499e-10
1.15408e-10
1.0703e-10
9.80475e-11
8.87098e-11
7.77291e-11
6.98335e-11
6.43245e-11
5.91739e-11
5.33621e-11
4.56579e-11
3.2136e-11
1.66923e-11
4.19983e-11
4.72517e-11
4.18964e-12
3.66094e-11
1.15335e-10
1.65474e-10
1.90123e-10
1.99186e-10
1.9957e-10
1.96416e-10
1.89818e-10
1.81636e-10
1.73325e-10
1.62843e-10
1.52481e-10
1.42284e-10
1.32549e-10
1.23413e-10
1.14479e-10
1.06004e-10
9.68659e-11
8.7341e-11
7.93624e-11
7.08528e-11
6.34744e-11
5.71164e-11
4.97307e-11
3.96963e-11
2.56656e-11
1.21594e-11
2.30727e-11
7.49705e-10
3.58499e-10
1.78671e-10
1.89396e-10
2.02683e-10
2.09653e-10
2.10442e-10
2.06957e-10
2.01389e-10
1.92068e-10
1.82969e-10
1.73369e-10
1.62746e-10
1.52458e-10
1.42293e-10
1.32438e-10
1.23012e-10
1.13683e-10
1.04734e-10
9.60565e-11
8.66453e-11
7.93207e-11
7.14717e-11
6.34137e-11
5.62662e-11
4.83855e-11
3.88376e-11
2.80595e-11
1.62083e-11
2.02897e-11
8.22396e-10
4.9192e-10
2.73921e-10
2.49065e-10
2.39985e-10
2.31791e-10
2.24647e-10
2.15908e-10
2.05955e-10
1.95235e-10
1.84782e-10
1.73917e-10
1.63141e-10
1.52525e-10
1.42156e-10
1.32118e-10
1.22447e-10
1.12992e-10
1.03819e-10
9.49915e-11
8.64699e-11
7.84067e-11
7.13456e-11
6.41388e-11
5.67771e-11
4.85056e-11
4.05548e-11
2.58157e-11
1.78404e-11
2.20029e-11
6.08453e-10
4.11868e-10
3.06368e-10
2.8642e-10
2.61697e-10
2.51748e-10
2.38263e-10
2.24241e-10
2.11018e-10
1.98708e-10
1.86454e-10
1.74909e-10
1.63633e-10
1.52632e-10
1.41993e-10
1.31734e-10
1.21837e-10
1.12242e-10
1.02973e-10
9.40367e-11
8.57854e-11
7.82405e-11
7.07505e-11
6.44771e-11
5.84805e-11
4.61802e-11
3.61652e-11
3.22041e-11
1.96779e-11
1.73983e-11
4.37548e-10
2.97926e-10
2.79418e-10
2.96217e-10
2.81744e-10
2.60201e-10
2.46269e-10
2.32183e-10
2.16316e-10
2.01285e-10
1.88261e-10
1.75973e-10
1.64053e-10
1.52682e-10
1.418e-10
1.31323e-10
1.21186e-10
1.11392e-10
1.02095e-10
9.32874e-11
8.48578e-11
7.76452e-11
7.14678e-11
6.50106e-11
5.40267e-11
4.72164e-11
4.1864e-11
3.30066e-11
1.77706e-11
1.55176e-11
2.87488e-10
2.0256e-10
2.46351e-10
2.87467e-10
2.84231e-10
2.69762e-10
2.51827e-10
2.3513e-10
2.20092e-10
2.04434e-10
1.89897e-10
1.76682e-10
1.64377e-10
1.52697e-10
1.41551e-10
1.30856e-10
1.20515e-10
1.10601e-10
1.01132e-10
9.23688e-11
8.45926e-11
7.75812e-11
7.11278e-11
6.30144e-11
5.73331e-11
4.92807e-11
4.15864e-11
3.28723e-11
1.82428e-11
1.56742e-11
2.20914e-10
1.60928e-10
2.20597e-10
2.7256e-10
2.78903e-10
2.68499e-10
2.54839e-10
2.38581e-10
2.2185e-10
2.06205e-10
1.91236e-10
1.77161e-10
1.64457e-10
1.52626e-10
1.41287e-10
1.30388e-10
1.19889e-10
1.09786e-10
1.00166e-10
9.16992e-11
8.42718e-11
7.71624e-11
7.1256e-11
6.54385e-11
5.7654e-11
4.96555e-11
4.22232e-11
3.28863e-11
1.94497e-11
1.724e-11
2.86322e-10
1.57377e-10
1.91887e-10
2.54103e-10
2.70338e-10
2.65954e-10
2.53972e-10
2.39058e-10
2.22902e-10
2.06949e-10
1.91774e-10
1.77525e-10
1.64469e-10
1.52411e-10
1.41007e-10
1.29964e-10
1.19288e-10
1.09015e-10
9.95525e-11
9.11157e-11
8.36908e-11
7.71039e-11
7.14765e-11
6.57675e-11
5.93817e-11
5.19488e-11
4.25602e-11
3.13165e-11
1.86672e-11
1.94513e-11
2.31662e-10
1.21324e-10
1.67102e-10
2.39081e-10
2.6114e-10
2.60229e-10
2.51171e-10
2.38099e-10
2.2277e-10
2.06979e-10
1.91883e-10
1.77783e-10
1.64495e-10
1.52155e-10
1.40647e-10
1.29513e-10
1.18683e-10
1.08434e-10
9.91742e-11
9.06971e-11
8.31686e-11
7.68317e-11
7.15106e-11
6.61015e-11
5.98629e-11
5.29767e-11
4.41969e-11
3.0065e-11
1.43828e-11
1.9911e-11
1.10835e-10
5.71349e-11
1.43535e-10
2.24465e-10
2.51297e-10
2.54239e-10
2.47742e-10
2.36369e-10
2.21975e-10
2.06542e-10
1.91778e-10
1.77733e-10
1.64478e-10
1.52024e-10
1.40312e-10
1.29081e-10
1.18235e-10
1.08072e-10
9.8756e-11
9.03231e-11
8.27842e-11
7.65497e-11
7.15017e-11
6.63833e-11
6.03199e-11
5.34818e-11
4.4881e-11
3.17453e-11
1.26221e-11
1.55638e-11
-3.05086e-11
-1.09004e-11
1.2149e-10
2.10086e-10
2.42231e-10
2.48477e-10
2.44229e-10
2.34367e-10
2.20881e-10
2.06148e-10
1.91492e-10
1.77569e-10
1.64413e-10
1.5194e-10
1.40125e-10
1.28812e-10
1.17969e-10
1.0779e-10
9.84192e-11
8.99214e-11
8.25874e-11
7.65181e-11
7.14843e-11
6.6525e-11
6.05342e-11
5.35157e-11
4.37588e-11
2.98162e-11
1.89094e-11
1.49224e-11
-8.49551e-11
-5.07918e-11
1.00592e-10
1.97428e-10
2.34279e-10
2.43372e-10
2.41139e-10
2.32544e-10
2.20018e-10
2.05709e-10
1.91208e-10
1.77482e-10
1.64408e-10
1.51972e-10
1.40114e-10
1.28749e-10
1.17889e-10
1.07667e-10
9.82354e-11
8.97016e-11
8.23765e-11
7.66228e-11
7.15544e-11
6.66266e-11
6.06294e-11
5.36154e-11
4.39036e-11
3.05311e-11
2.02662e-11
1.46622e-11
-9.55437e-11
-6.60237e-11
8.67596e-11
1.88208e-10
2.28362e-10
2.39659e-10
2.38955e-10
2.31343e-10
2.19387e-10
2.05392e-10
1.9108e-10
1.77531e-10
1.64584e-10
1.52189e-10
1.40318e-10
1.28923e-10
1.18033e-10
1.07766e-10
9.82656e-11
8.96375e-11
8.23057e-11
7.66494e-11
7.16811e-11
6.67618e-11
6.07146e-11
5.38071e-11
4.43015e-11
3.10802e-11
2.06292e-11
1.44508e-11
-1.01444e-10
-7.20129e-11
8.10677e-11
1.83914e-10
2.2546e-10
2.37855e-10
2.37931e-10
2.30831e-10
2.19202e-10
2.05411e-10
1.9123e-10
1.77795e-10
1.6495e-10
1.52616e-10
1.40768e-10
1.29357e-10
1.18417e-10
1.08077e-10
9.84877e-11
8.97724e-11
8.24076e-11
7.67503e-11
7.17876e-11
6.68457e-11
6.07996e-11
5.39605e-11
4.45595e-11
3.13659e-11
2.08208e-11
1.44209e-11
-9.93287e-11
-7.11661e-11
8.23915e-11
1.84733e-10
2.25872e-10
2.38161e-10
2.38211e-10
2.31124e-10
2.1955e-10
2.05835e-10
1.91737e-10
1.78333e-10
1.65517e-10
1.5326e-10
1.4147e-10
1.30054e-10
1.19039e-10
1.08586e-10
9.89009e-11
9.01411e-11
8.26895e-11
7.69276e-11
7.18592e-11
6.6884e-11
6.08476e-11
5.40042e-11
4.4613e-11
3.14309e-11
2.09047e-11
1.45e-11
-8.95789e-11
-5.66356e-11
9.22869e-11
1.90031e-10
2.29105e-10
2.40422e-10
2.39794e-10
2.3227e-10
2.20426e-10
2.0666e-10
1.92549e-10
1.79111e-10
1.66325e-10
1.5413e-10
1.42411e-10
1.30996e-10
1.19889e-10
1.09315e-10
9.95148e-11
9.06668e-11
8.31353e-11
7.71637e-11
7.19502e-11
6.68783e-11
6.08158e-11
5.39192e-11
4.45607e-11
3.12541e-11
2.08668e-11
1.47663e-11
-5.67376e-13
-1.27485e-11
1.05424e-10
1.98154e-10
2.34432e-10
2.44227e-10
2.42484e-10
2.34269e-10
2.21813e-10
2.07703e-10
1.93667e-10
1.80136e-10
1.67346e-10
1.5519e-10
1.43548e-10
1.32147e-10
1.20933e-10
1.1024e-10
1.00332e-10
9.13862e-11
8.3676e-11
7.72978e-11
7.21822e-11
6.69219e-11
6.06505e-11
5.37009e-11
4.46985e-11
3.08832e-11
2.0121e-11
1.57973e-11
1.27142e-10
4.27946e-11
1.19767e-10
2.08942e-10
2.41685e-10
2.49114e-10
2.45895e-10
2.36652e-10
2.23648e-10
2.09188e-10
1.94909e-10
1.81343e-10
1.68465e-10
1.56361e-10
1.44849e-10
1.33472e-10
1.22138e-10
1.11276e-10
1.01293e-10
9.22183e-11
8.42293e-11
7.77557e-11
7.24417e-11
6.69318e-11
6.04848e-11
5.34234e-11
4.46059e-11
3.04273e-11
1.90107e-11
1.7357e-11
1.66095e-10
8.13681e-11
1.4367e-10
2.21096e-10
2.49868e-10
2.54833e-10
2.49572e-10
2.39224e-10
2.25522e-10
2.10818e-10
1.96371e-10
1.82536e-10
1.69634e-10
1.57654e-10
1.46253e-10
1.34874e-10
1.23511e-10
1.12436e-10
1.02282e-10
9.30761e-11
8.50662e-11
7.82829e-11
7.26481e-11
6.6886e-11
6.04563e-11
5.32799e-11
4.3443e-11
3.03838e-11
1.83984e-11
1.7947e-11
2.27175e-10
1.22198e-10
1.65904e-10
2.36074e-10
2.58288e-10
2.6004e-10
2.53e-10
2.41265e-10
2.27088e-10
2.12453e-10
1.9787e-10
1.83694e-10
1.70937e-10
1.591e-10
1.4758e-10
1.36202e-10
1.24925e-10
1.13891e-10
1.03296e-10
9.41051e-11
8.61635e-11
7.88394e-11
7.25928e-11
6.64359e-11
6.00715e-11
5.1857e-11
4.29391e-11
3.22673e-11
1.80052e-11
1.62672e-11
2.76136e-10
1.57398e-10
1.8829e-10
2.50424e-10
2.67406e-10
2.64989e-10
2.55881e-10
2.42267e-10
2.28211e-10
2.13535e-10
1.98849e-10
1.84954e-10
1.72304e-10
1.6037e-10
1.48861e-10
1.37524e-10
1.26269e-10
1.15292e-10
1.04726e-10
9.52185e-11
8.69362e-11
7.9605e-11
7.21615e-11
6.57494e-11
5.92038e-11
5.14702e-11
4.31493e-11
3.24065e-11
1.75112e-11
1.51368e-11
2.86487e-10
1.78652e-10
2.10658e-10
2.64122e-10
2.74609e-10
2.6918e-10
2.57467e-10
2.42969e-10
2.28198e-10
2.13328e-10
1.99196e-10
1.86053e-10
1.73471e-10
1.61576e-10
1.50122e-10
1.38839e-10
1.27624e-10
1.1667e-10
1.06238e-10
9.638e-11
8.72479e-11
7.9528e-11
7.24455e-11
6.5903e-11
5.96904e-11
5.19384e-11
4.25579e-11
3.22104e-11
1.69894e-11
1.48489e-11
2.8579e-10
1.98969e-10
2.32011e-10
2.74491e-10
2.78911e-10
2.69487e-10
2.56601e-10
2.41557e-10
2.27576e-10
2.13318e-10
1.99721e-10
1.86823e-10
1.74454e-10
1.62698e-10
1.51297e-10
1.40053e-10
1.28934e-10
1.18026e-10
1.07561e-10
9.76176e-11
8.83451e-11
8.00648e-11
7.25163e-11
6.57984e-11
5.93825e-11
5.20833e-11
4.32033e-11
3.18023e-11
1.67231e-11
1.48434e-11
2.91737e-10
2.2088e-10
2.47942e-10
2.77312e-10
2.76913e-10
2.66869e-10
2.52389e-10
2.39012e-10
2.26096e-10
2.13588e-10
2.00204e-10
1.87432e-10
1.75351e-10
1.63706e-10
1.52359e-10
1.41166e-10
1.30155e-10
1.19353e-10
1.08911e-10
9.89492e-11
9.01196e-11
8.13519e-11
7.27514e-11
6.52829e-11
5.85177e-11
5.2467e-11
4.34482e-11
3.17807e-11
1.69608e-11
1.51793e-11
3.67348e-10
2.57165e-10
2.46581e-10
2.6603e-10
2.66059e-10
2.58881e-10
2.46145e-10
2.35909e-10
2.25344e-10
2.12823e-10
2.00681e-10
1.88173e-10
1.76053e-10
1.64576e-10
1.53304e-10
1.42163e-10
1.31269e-10
1.20522e-10
1.10244e-10
1.00769e-10
9.14277e-11
8.28601e-11
7.43572e-11
6.52656e-11
5.92057e-11
5.32961e-11
4.02364e-11
3.16754e-11
1.99508e-11
1.61759e-11
4.5252e-10
2.78244e-10
2.12216e-10
2.35991e-10
2.47471e-10
2.47477e-10
2.40484e-10
2.32932e-10
2.24087e-10
2.12414e-10
2.00397e-10
1.89127e-10
1.76919e-10
1.65389e-10
1.54043e-10
1.42907e-10
1.32212e-10
1.21709e-10
1.11848e-10
1.02148e-10
9.23397e-11
8.44277e-11
7.50753e-11
6.51909e-11
5.74351e-11
5.66662e-11
4.79933e-11
3.67519e-11
1.58133e-11
1.86955e-11
5.62054e-10
2.13364e-10
1.10361e-10
1.91962e-10
2.30443e-10
2.39391e-10
2.36339e-10
2.30306e-10
2.21819e-10
2.12155e-10
2.00835e-10
1.89897e-10
1.7802e-10
1.66011e-10
1.54448e-10
1.43246e-10
1.32811e-10
1.22849e-10
1.13455e-10
1.03227e-10
9.38532e-11
8.46099e-11
7.47596e-11
6.48404e-11
5.82653e-11
6.05054e-11
5.68476e-11
4.43363e-11
2.74465e-11
3.13657e-11
9.60322e-11
-2.33953e-10
2.69573e-12
1.7606e-10
2.25622e-10
2.37261e-10
2.35635e-10
2.29261e-10
2.19573e-10
2.09324e-10
2.03057e-10
1.91713e-10
1.78929e-10
1.66175e-10
1.54385e-10
1.43217e-10
1.32812e-10
1.23633e-10
1.14766e-10
1.06373e-10
9.40736e-11
8.24227e-11
7.50777e-11
6.56944e-11
5.70996e-11
6.64296e-11
7.33095e-11
7.02884e-11
4.71559e-11
7.92467e-11
-1.33252e-09
-5.32193e-10
-5.25997e-11
7.71409e-11
1.47298e-10
1.80523e-10
1.93414e-10
1.95517e-10
1.92476e-10
1.87541e-10
1.81524e-10
1.73552e-10
1.62873e-10
1.52194e-10
1.41716e-10
1.32077e-10
1.23189e-10
1.1485e-10
1.06741e-10
9.80602e-11
8.77327e-11
7.8083e-11
6.97541e-11
6.33163e-11
5.74252e-11
5.12744e-11
4.41881e-11
4.03102e-11
4.66025e-11
8.46887e-12
-1.15184e-10
-1.6926e-10
-4.60233e-11
8.42312e-11
1.52169e-10
1.83552e-10
1.95277e-10
1.96951e-10
1.94178e-10
1.89304e-10
1.81161e-10
1.72064e-10
1.63275e-10
1.52429e-10
1.41835e-10
1.32165e-10
1.23199e-10
1.15184e-10
1.05902e-10
9.61114e-11
8.80499e-11
7.89961e-11
6.99657e-11
6.26852e-11
5.6599e-11
4.9084e-11
3.91087e-11
2.55784e-11
1.08633e-11
2.35264e-11
3.67688e-10
2.4787e-10
1.33994e-10
1.44733e-10
1.76531e-10
1.95221e-10
2.01786e-10
2.01627e-10
1.97489e-10
1.90796e-10
1.81887e-10
1.72191e-10
1.62805e-10
1.52343e-10
1.42012e-10
1.32276e-10
1.2303e-10
1.14355e-10
1.04885e-10
9.5478e-11
8.74091e-11
7.88764e-11
7.0473e-11
6.22319e-11
5.49924e-11
4.64175e-11
3.45547e-11
2.0291e-11
1.40376e-11
1.46801e-11
9.55263e-10
5.82538e-10
2.78451e-10
2.18986e-10
2.14389e-10
2.15087e-10
2.13126e-10
2.08787e-10
2.02216e-10
1.93313e-10
1.83177e-10
1.7201e-10
1.6224e-10
1.52648e-10
1.42223e-10
1.32281e-10
1.22972e-10
1.13508e-10
1.03149e-10
9.45587e-11
8.67825e-11
7.88332e-11
7.06648e-11
6.21893e-11
5.44093e-11
4.58713e-11
3.43171e-11
2.24493e-11
1.56933e-11
1.02419e-11
9.11819e-10
6.64557e-10
3.74891e-10
2.80731e-10
2.51976e-10
2.37748e-10
2.27582e-10
2.17513e-10
2.07427e-10
1.96223e-10
1.84076e-10
1.72956e-10
1.62778e-10
1.52575e-10
1.42094e-10
1.32009e-10
1.22343e-10
1.12705e-10
1.02765e-10
9.32973e-11
8.56528e-11
7.84023e-11
7.05465e-11
6.28771e-11
5.5219e-11
4.61337e-11
3.47107e-11
2.24583e-11
1.60133e-11
1.1279e-11
7.25973e-10
5.876e-10
4.04544e-10
3.1611e-10
2.76682e-10
2.59309e-10
2.4227e-10
2.26383e-10
2.12423e-10
1.9875e-10
1.8582e-10
1.74315e-10
1.63221e-10
1.52526e-10
1.41918e-10
1.31639e-10
1.21647e-10
1.11798e-10
1.0205e-10
9.27835e-11
8.447e-11
7.74561e-11
7.03347e-11
6.39656e-11
5.81598e-11
4.6034e-11
3.00331e-11
2.41207e-11
1.92637e-11
1.03338e-11
5.65254e-10
4.8457e-10
3.84884e-10
3.33275e-10
2.97439e-10
2.67619e-10
2.50455e-10
2.34367e-10
2.16397e-10
2.01287e-10
1.88118e-10
1.75493e-10
1.63563e-10
1.52307e-10
1.41704e-10
1.31242e-10
1.20908e-10
1.1066e-10
1.01118e-10
9.23044e-11
8.41802e-11
7.6242e-11
7.02575e-11
6.48988e-11
5.36173e-11
4.59571e-11
3.82594e-11
2.7516e-11
1.65352e-11
9.05513e-12
4.1918e-10
4.08773e-10
3.64781e-10
3.27608e-10
3.00294e-10
2.77139e-10
2.55875e-10
2.36809e-10
2.20942e-10
2.04145e-10
1.89439e-10
1.76226e-10
1.63719e-10
1.52199e-10
1.41412e-10
1.3074e-10
1.20164e-10
1.09729e-10
1.00018e-10
9.1393e-11
8.35654e-11
7.67905e-11
7.0251e-11
6.22855e-11
5.67904e-11
4.80198e-11
3.84294e-11
2.72187e-11
1.73032e-11
9.32634e-12
4.66937e-10
4.1763e-10
3.45586e-10
3.1342e-10
2.95021e-10
2.75795e-10
2.58158e-10
2.40391e-10
2.23271e-10
2.06368e-10
1.90686e-10
1.76168e-10
1.63627e-10
1.52206e-10
1.41093e-10
1.3019e-10
1.19506e-10
1.08934e-10
9.87424e-11
9.02203e-11
8.32259e-11
7.6632e-11
7.07709e-11
6.40891e-11
5.65931e-11
4.82449e-11
3.96321e-11
2.74197e-11
1.81176e-11
9.90178e-12
5.78595e-10
4.42671e-10
3.22412e-10
2.96741e-10
2.8612e-10
2.70753e-10
2.56769e-10
2.42153e-10
2.24668e-10
2.07442e-10
1.91421e-10
1.76322e-10
1.63377e-10
1.5199e-10
1.40756e-10
1.29645e-10
1.18893e-10
1.07919e-10
9.76958e-11
8.95082e-11
8.26337e-11
7.66518e-11
7.16528e-11
6.52753e-11
5.66087e-11
4.87494e-11
4.06679e-11
2.72713e-11
1.82471e-11
1.08885e-11
4.86157e-10
4.05528e-10
3.04142e-10
2.81247e-10
2.75223e-10
2.65102e-10
2.55556e-10
2.4158e-10
2.24609e-10
2.07352e-10
1.9158e-10
1.76631e-10
1.63329e-10
1.51393e-10
1.40243e-10
1.29105e-10
1.17967e-10
1.07185e-10
9.73041e-11
8.91209e-11
8.20849e-11
7.60769e-11
7.16001e-11
6.6634e-11
5.83811e-11
4.90533e-11
3.99984e-11
2.70577e-11
1.87591e-11
1.11812e-11
4.40754e-10
3.59871e-10
2.74378e-10
2.6259e-10
2.66131e-10
2.61125e-10
2.52734e-10
2.40019e-10
2.23969e-10
2.0701e-10
1.9097e-10
1.76622e-10
1.63564e-10
1.51091e-10
1.39516e-10
1.28353e-10
1.17148e-10
1.06848e-10
9.73687e-11
8.8338e-11
8.14598e-11
7.58981e-11
7.15633e-11
6.70851e-11
6.00128e-11
5.15883e-11
3.88648e-11
2.66314e-11
1.93855e-11
1.00127e-11
3.70316e-10
3.11328e-10
2.46867e-10
2.4868e-10
2.58626e-10
2.55437e-10
2.49468e-10
2.38471e-10
2.23124e-10
2.06247e-10
1.90694e-10
1.76687e-10
1.63374e-10
1.50801e-10
1.39106e-10
1.27791e-10
1.16729e-10
1.06322e-10
9.69955e-11
8.84127e-11
8.08592e-11
7.58011e-11
7.19625e-11
6.74759e-11
6.0405e-11
5.18277e-11
4.01982e-11
2.60879e-11
1.99237e-11
1.02137e-11
3.3181e-10
2.82471e-10
2.28924e-10
2.3784e-10
2.50965e-10
2.5019e-10
2.46497e-10
2.37077e-10
2.22144e-10
2.05676e-10
1.90688e-10
1.76653e-10
1.63207e-10
1.50731e-10
1.38913e-10
1.27509e-10
1.16503e-10
1.06104e-10
9.66402e-11
8.83614e-11
8.09809e-11
7.56006e-11
7.22908e-11
6.78417e-11
6.04581e-11
5.20542e-11
4.16026e-11
2.59431e-11
1.97813e-11
1.01641e-11
3.38646e-10
2.75942e-10
2.17115e-10
2.29306e-10
2.45092e-10
2.46633e-10
2.4459e-10
2.36004e-10
2.21586e-10
2.05423e-10
1.9047e-10
1.7669e-10
1.63426e-10
1.50902e-10
1.3901e-10
1.2756e-10
1.16559e-10
1.06182e-10
9.6747e-11
8.81355e-11
8.09304e-11
7.57296e-11
7.25251e-11
6.80602e-11
6.05234e-11
5.23386e-11
4.22787e-11
2.62751e-11
1.97839e-11
1.00608e-11
3.39884e-10
2.72811e-10
2.11777e-10
2.25167e-10
2.42273e-10
2.44944e-10
2.43694e-10
2.3556e-10
2.21449e-10
2.05497e-10
1.90591e-10
1.76922e-10
1.63821e-10
1.51333e-10
1.3945e-10
1.27981e-10
1.16934e-10
1.06499e-10
9.69785e-11
8.81961e-11
8.10454e-11
7.58786e-11
7.26504e-11
6.8156e-11
6.06016e-11
5.25133e-11
4.25678e-11
2.65366e-11
1.98754e-11
1.00338e-11
3.24024e-10
2.67441e-10
2.12452e-10
2.25783e-10
2.42856e-10
2.45316e-10
2.43914e-10
2.35874e-10
2.218e-10
2.05866e-10
1.91202e-10
1.7754e-10
1.64332e-10
1.52005e-10
1.40235e-10
1.2877e-10
1.17612e-10
1.06993e-10
9.73357e-11
8.87328e-11
8.13048e-11
7.5974e-11
7.2691e-11
6.81584e-11
6.06249e-11
5.24574e-11
4.25732e-11
2.67244e-11
2.00236e-11
1.00721e-11
3.19934e-10
2.71238e-10
2.18778e-10
2.30008e-10
2.46161e-10
2.47726e-10
2.45456e-10
2.36893e-10
2.2275e-10
2.0672e-10
1.92022e-10
1.78239e-10
1.65211e-10
1.52969e-10
1.41342e-10
1.299e-10
1.18592e-10
1.07794e-10
9.79197e-11
8.92825e-11
8.16437e-11
7.62632e-11
7.2667e-11
6.80268e-11
6.05947e-11
5.2154e-11
4.2082e-11
2.71195e-11
2.02976e-11
1.00909e-11
3.64027e-10
2.96296e-10
2.30998e-10
2.36082e-10
2.51044e-10
2.52124e-10
2.48217e-10
2.38409e-10
2.24142e-10
2.08207e-10
1.92799e-10
1.79232e-10
1.6639e-10
1.54195e-10
1.42685e-10
1.31305e-10
1.19796e-10
1.08844e-10
9.89772e-11
8.96043e-11
8.20259e-11
7.68001e-11
7.2622e-11
6.77683e-11
6.0417e-11
5.17121e-11
4.07997e-11
2.79731e-11
2.07993e-11
1.00428e-11
3.8666e-10
3.18597e-10
2.51195e-10
2.49234e-10
2.5668e-10
2.56329e-10
2.51598e-10
2.40474e-10
2.25712e-10
2.09858e-10
1.9453e-10
1.80162e-10
1.67564e-10
1.55511e-10
1.44272e-10
1.32957e-10
1.21168e-10
1.10113e-10
9.96962e-11
9.02588e-11
8.3075e-11
7.7136e-11
7.27636e-11
6.7633e-11
5.98309e-11
5.02687e-11
4.03891e-11
2.84162e-11
2.041e-11
1.04899e-11
3.53932e-10
3.25974e-10
2.74153e-10
2.66024e-10
2.67085e-10
2.60656e-10
2.53751e-10
2.42972e-10
2.2763e-10
2.11557e-10
1.9631e-10
1.81468e-10
1.68353e-10
1.57146e-10
1.45997e-10
1.34516e-10
1.23063e-10
1.11156e-10
1.00247e-10
9.14731e-11
8.40825e-11
7.77531e-11
7.30607e-11
6.69673e-11
5.8063e-11
4.98914e-11
4.12217e-11
2.84222e-11
1.8943e-11
1.06583e-11
3.68106e-10
3.3897e-10
2.92948e-10
2.81391e-10
2.77339e-10
2.67189e-10
2.56602e-10
2.44434e-10