/*--------------------------------*- C++ -*----------------------------------*\
| =========                 |                                                 |
| \\      /  F ield         | OpenFOAM: The Open Source CFD Toolbox           |
|  \\    /   O peration     | Version:  2212                                  |
|   \\  /    A nd           | Website:  www.openfoam.com                      |
|    \\/     M anipulation  |                                                 |
\*---------------------------------------------------------------------------*/
FoamFile
{
    version     2.0;
    format      ascii;
    arch        "LSB;label=32;scalar=64";
    class       volScalarField;
    location    "0";
    object      p;
}
// * * * * * * * * * * * * * * * * * * * * * * * * * * * * * * * * * * * * * //

dimensions      [0 2 -2 0 0 0 0];

internalField   nonuniform List<scalar> 
179928
(
-3.13703e-07
-1.09962e-07
-1.14403e-08
5.08047e-09
1.3592e-08
1.73814e-08
1.92005e-08
1.97101e-08
1.85784e-08
1.69958e-08
1.93417e-08
1.80549e-08
1.59839e-08
1.53085e-08
1.41313e-08
1.32438e-08
1.22901e-08
1.15134e-08
1.06917e-08
1.11229e-08
8.86636e-09
6.00902e-09
7.46037e-09
6.77745e-09
6.26574e-09
5.95331e-09
6.23494e-09
6.85642e-09
1.84399e-08
1.47117e-08
-1.29617e-07
-6.72177e-08
-1.48744e-08
5.16735e-09
1.40066e-08
1.77721e-08
1.92722e-08
1.95218e-08
1.90338e-08
1.83822e-08
1.82367e-08
1.76387e-08
1.63331e-08
1.52573e-08
1.42016e-08
1.32303e-08
1.23347e-08
1.15482e-08
1.08661e-08
1.00602e-08
8.71714e-09
7.4976e-09
7.05353e-09
6.56983e-09
6.08689e-09
5.66851e-09
5.24564e-09
4.75808e-09
5.76921e-09
4.63918e-09
-1.07234e-07
-3.21716e-08
5.58124e-09
1.21049e-08
1.66007e-08
1.89817e-08
1.99366e-08
1.99348e-08
1.94028e-08
1.88369e-08
1.82632e-08
1.74249e-08
1.63247e-08
1.52484e-08
1.42263e-08
1.32523e-08
1.23378e-08
1.14745e-08
1.0681e-08
9.82281e-09
8.79107e-09
7.74271e-09
7.02925e-09
6.49116e-09
5.87687e-09
5.23662e-09
4.55343e-09
4.06396e-09
4.46868e-09
4.6273e-10
-7.38115e-08
-3.16316e-09
2.15691e-08
1.99155e-08
2.03729e-08
2.0933e-08
2.10619e-08
2.06054e-08
1.99081e-08
1.92336e-08
1.83469e-08
1.73832e-08
1.63107e-08
1.52481e-08
1.42264e-08
1.32418e-08
1.2301e-08
1.13943e-08
1.0536e-08
9.66747e-09
8.76515e-09
7.89186e-09
7.00932e-09
6.46961e-09
5.78794e-09
5.11251e-09
4.59671e-09
4.81093e-09
5.71794e-09
-3.25816e-10
-4.77451e-08
1.17617e-08
2.89029e-08
2.5622e-08
2.40362e-08
2.31086e-08
2.23739e-08
2.15604e-08
2.05233e-08
1.94894e-08
1.84894e-08
1.74306e-08
1.63377e-08
1.52572e-08
1.42159e-08
1.32113e-08
1.22494e-08
1.13214e-08
1.0431e-08
9.55247e-09
8.66892e-09
7.83816e-09
7.17644e-09
6.47791e-09
5.78285e-09
5.13985e-09
4.78903e-09
4.44819e-09
4.96679e-09
1.3651e-09
-6.29657e-08
6.59415e-09
3.17916e-08
2.82084e-08
2.63242e-08
2.51752e-08
2.36599e-08
2.24309e-08
2.107e-08
1.97771e-08
1.86668e-08
1.7527e-08
1.6394e-08
1.52751e-08
1.4203e-08
1.31738e-08
1.21936e-08
1.12547e-08
1.03499e-08
9.46219e-09
8.58062e-09
7.75897e-09
7.18406e-09
6.48344e-09
5.88759e-09
5.24584e-09
3.9045e-09
3.99831e-09
5.15602e-09
1.27215e-09
-7.972e-08
-4.54688e-09
2.90792e-08
2.95931e-08
2.80693e-08
2.5871e-08
2.45098e-08
2.315e-08
2.15917e-08
2.01544e-08
1.88139e-08
1.76127e-08
1.6442e-08
1.52894e-08
1.41855e-08
1.31326e-08
1.21325e-08
1.11803e-08
1.026e-08
9.34581e-09
8.51384e-09
7.78295e-09
7.16794e-09
6.52699e-09
5.50357e-09
4.9247e-09
4.75238e-09
4.22498e-09
4.60486e-09
8.64817e-10
-9.15118e-08
-1.41787e-08
2.51608e-08
2.85725e-08
2.83304e-08
2.68807e-08
2.50769e-08
2.34504e-08
2.19624e-08
2.04425e-08
1.90159e-08
1.76983e-08
1.64611e-08
1.52815e-08
1.41608e-08
1.30885e-08
1.20633e-08
1.10867e-08
1.01651e-08
9.29512e-09
8.5052e-09
7.77318e-09
7.13693e-09
6.3669e-09
5.82882e-09
5.22445e-09
4.67782e-09
4.2177e-09
4.48174e-09
8.90145e-10
-9.94735e-08
-2.02513e-08
2.2036e-08
2.71381e-08
2.79834e-08
2.68658e-08
2.53565e-08
2.3775e-08
2.21496e-08
2.05996e-08
1.91353e-08
1.7762e-08
1.64771e-08
1.52709e-08
1.41352e-08
1.30461e-08
1.2001e-08
1.10066e-08
1.00903e-08
9.24118e-09
8.46492e-09
7.74717e-09
7.15944e-09
6.57524e-09
5.87094e-09
5.45724e-09
4.88071e-09
4.26944e-09
4.66862e-09
1.04687e-09
-1.05011e-07
-2.27316e-08
2.06227e-08
2.59007e-08
2.70454e-08
2.64949e-08
2.52607e-08
2.38034e-08
2.22314e-08
2.06705e-08
1.91921e-08
1.78036e-08
1.64847e-08
1.52582e-08
1.41082e-08
1.30052e-08
1.19448e-08
1.09412e-08
1.00265e-08
9.18802e-09
8.41628e-09
7.73983e-09
7.16407e-09
6.58702e-09
6.01162e-09
5.50202e-09
5.07027e-09
4.97969e-09
5.28821e-09
2.50735e-10
-1.05507e-07
-2.40742e-08
1.88418e-08
2.41709e-08
2.59268e-08
2.58735e-08
2.49823e-08
2.36933e-08
2.22071e-08
2.06827e-08
1.92169e-08
1.78127e-08
1.64871e-08
1.52467e-08
1.40813e-08
1.29668e-08
1.18976e-08
1.08923e-08
9.97194e-09
9.13561e-09
8.3803e-09
7.72162e-09
7.15967e-09
6.6182e-09
6.06079e-09
5.48911e-09
4.96662e-09
4.78532e-09
5.3766e-09
-4.89564e-10
-1.03232e-07
-2.74826e-08
1.56035e-08
2.24156e-08
2.4871e-08
2.52374e-08
2.46203e-08
2.3508e-08
2.21268e-08
2.06592e-08
1.91999e-08
1.78057e-08
1.64857e-08
1.52383e-08
1.40595e-08
1.29353e-08
1.18626e-08
1.08571e-08
9.93069e-09
9.08693e-09
8.34215e-09
7.70579e-09
7.15405e-09
6.64565e-09
6.09496e-09
5.53323e-09
5.06555e-09
4.86324e-09
3.63353e-09
-7.06934e-10
-1.05348e-07
-3.20068e-08
1.24432e-08
2.07748e-08
2.39067e-08
2.46416e-08
2.42542e-08
2.33048e-08
2.2031e-08
2.06072e-08
1.91712e-08
1.77931e-08
1.64819e-08
1.52348e-08
1.4049e-08
1.29181e-08
1.18423e-08
1.08333e-08
9.90041e-09
9.05206e-09
8.31105e-09
7.68953e-09
7.15711e-09
6.65639e-09
6.11916e-09
5.54972e-09
5.05227e-09
4.59243e-09
3.13769e-09
6.24532e-10
-1.07596e-07
-3.51423e-08
9.9957e-09
1.93783e-08
2.30745e-08
2.4126e-08
2.39434e-08
2.31273e-08
2.19341e-08
2.05558e-08
1.91461e-08
1.77849e-08
1.64845e-08
1.52417e-08
1.4054e-08
1.29189e-08
1.18394e-08
1.08247e-08
9.88494e-09
9.03249e-09
8.29261e-09
7.67951e-09
7.15782e-09
6.66801e-09
6.13575e-09
5.55704e-09
5.06135e-09
4.62147e-09
3.25997e-09
5.254e-10
-1.09997e-07
-3.70307e-08
8.6182e-09
1.84358e-08
2.24742e-08
2.37515e-08
2.37193e-08
2.29995e-08
2.18677e-08
2.05231e-08
1.91355e-08
1.77905e-08
1.65017e-08
1.5265e-08
1.40779e-08
1.29404e-08
1.18566e-08
1.08356e-08
9.88794e-09
9.02886e-09
8.28729e-09
7.67864e-09
7.16485e-09
6.67643e-09
6.14678e-09
5.57456e-09
5.09673e-09
4.67981e-09
3.21412e-09
4.72302e-10
-1.11305e-07
-3.79006e-08
8.07937e-09
1.80158e-08
2.21842e-08
2.35664e-08
2.36119e-08
2.29478e-08
2.18468e-08
2.05239e-08
1.9151e-08
1.78173e-08
1.65378e-08
1.53076e-08
1.41232e-08
1.29843e-08
1.18954e-08
1.08666e-08
9.91028e-09
9.0436e-09
8.29752e-09
7.68712e-09
7.17435e-09
6.68798e-09
6.15044e-09
5.59056e-09
5.1222e-09
4.70557e-09
3.22921e-09
4.80307e-10
-1.11136e-07
-3.75462e-08
8.26964e-09
1.8108e-08
2.22222e-08
2.35943e-08
2.36407e-08
2.29757e-08
2.18817e-08
2.05661e-08
1.91989e-08
1.78696e-08
1.65949e-08
1.53708e-08
1.41907e-08
1.30509e-08
1.19557e-08
1.09176e-08
9.95206e-09
9.07785e-09
8.32453e-09
7.70638e-09
7.18342e-09
6.69105e-09
6.16182e-09
5.59556e-09
5.12592e-09
4.70509e-09
3.24806e-09
4.97893e-10
-1.09319e-07
-3.60694e-08
9.35617e-09
1.87027e-08
2.25582e-08
2.38135e-08
2.37948e-08
2.30916e-08
2.19739e-08
2.06489e-08
1.92777e-08
1.79469e-08
1.66739e-08
1.54545e-08
1.42791e-08
1.31389e-08
1.20365e-08
1.09883e-08
1.00129e-08
9.12921e-09
8.36612e-09
7.73583e-09
7.19904e-09
6.69364e-09
6.15593e-09
5.59052e-09
5.1182e-09
4.69864e-09
3.25984e-09
5.26993e-10
-1.07123e-07
-3.28481e-08
1.13848e-08
1.96826e-08
2.31237e-08
2.41881e-08
2.40656e-08
2.32771e-08
2.21143e-08
2.07666e-08
1.93842e-08
1.80468e-08
1.6772e-08
1.55555e-08
1.43856e-08
1.32455e-08
1.21352e-08
1.10765e-08
1.00913e-08
9.19686e-09
8.42148e-09
7.77477e-09
7.21637e-09
6.69799e-09
6.13812e-09
5.56773e-09
5.07599e-09
4.65704e-09
3.52806e-09
5.84493e-10
-1.06296e-07
-2.90685e-08
1.39832e-08
2.09578e-08
2.38809e-08
2.46893e-08
2.44156e-08
2.35282e-08
2.22818e-08
2.09052e-08
1.95143e-08
1.81644e-08
1.68823e-08
1.56683e-08
1.45061e-08
1.33674e-08
1.22487e-08
1.11776e-08
1.0184e-08
9.28201e-09
8.48902e-09
7.81348e-09
7.24256e-09
6.70051e-09
6.12651e-09
5.53601e-09
5.01327e-09
4.69718e-09
3.99715e-09
4.33351e-10
-1.08392e-07
-2.6585e-08
1.65814e-08
2.243e-08
2.47994e-08
2.52846e-08
2.48023e-08
2.3792e-08
2.24701e-08
2.10477e-08
1.96524e-08
1.82947e-08
1.70007e-08
1.57895e-08
1.46353e-08
1.34982e-08
1.2374e-08
1.12904e-08
1.02909e-08
9.3828e-09
8.56077e-09
7.85611e-09
7.26623e-09
6.70049e-09
6.13097e-09
5.54505e-09
5.01498e-09
4.72253e-09
4.36239e-09
-5.45968e-11
-9.81414e-08
-2.24043e-08
1.74415e-08
2.3696e-08
2.58266e-08
2.5914e-08
2.5145e-08
2.39968e-08
2.26327e-08
2.12108e-08
1.97887e-08
1.84234e-08
1.71274e-08
1.59179e-08
1.47655e-08
1.36297e-08
1.25067e-08
1.14181e-08
1.04116e-08
9.48903e-09
8.65734e-09
7.91228e-09
7.26443e-09
6.66238e-09
6.10578e-09
5.61041e-09
5.10611e-09
4.52479e-09
4.15015e-09
9.37295e-11
-9.32167e-08
-1.87561e-08
1.92568e-08
2.46654e-08
2.66288e-08
2.64532e-08
2.54648e-08
2.4126e-08
2.27699e-08
2.13203e-08
1.9892e-08
1.85284e-08
1.72523e-08
1.60476e-08
1.48935e-08
1.37595e-08
1.26419e-08
1.15566e-08
1.05319e-08
9.58781e-09
8.72658e-09
7.99344e-09
7.26132e-09
6.61253e-09
6.03912e-09
5.56673e-09
4.7725e-09
4.0937e-09
4.30049e-09
7.19703e-10
-9.54592e-08
-1.79068e-08
2.14142e-08
2.6185e-08
2.73357e-08
2.67309e-08
2.56126e-08
2.42258e-08
2.27652e-08
2.13146e-08
1.9933e-08
1.86151e-08
1.73723e-08
1.61736e-08
1.50179e-08
1.38863e-08
1.27775e-08
1.17022e-08
1.0664e-08
9.67119e-09
8.7662e-09
7.96229e-09
7.29155e-09
6.65194e-09
6.08323e-09
5.27319e-09
4.78807e-09
4.18009e-09
4.47376e-09
8.17978e-10
-9.83815e-08
-1.7767e-08
2.32481e-08
2.72194e-08
2.77178e-08
2.68347e-08
2.55121e-08
2.41601e-08
2.27199e-08
2.12612e-08
1.99446e-08
1.87034e-08
1.74812e-08
1.62867e-08
1.51358e-08
1.40065e-08
1.29086e-08
1.18434e-08
1.08116e-08
9.79162e-09
8.81487e-09
7.97811e-09
7.31918e-09
6.64625e-09
5.93376e-09
5.46201e-09
4.76588e-09
4.17294e-09
4.58529e-09
8.17947e-10
-9.98548e-08
-1.71738e-08
2.44674e-08
2.75309e-08
2.74791e-08
2.66266e-08
2.52024e-08
2.38828e-08
2.25285e-08
2.12668e-08
2.00144e-08
1.87684e-08
1.7556e-08
1.63769e-08
1.52385e-08
1.41174e-08
1.30245e-08
1.19604e-08
1.09378e-08
9.94804e-09
9.00941e-09
8.08753e-09
7.32103e-09
6.56691e-09
5.98576e-09
5.46293e-09
4.71476e-09
4.27435e-09
4.67671e-09
7.62731e-10
-9.78506e-08
-1.5359e-08
2.42557e-08
2.64497e-08
2.64322e-08
2.59708e-08
2.46773e-08
2.34625e-08
2.23324e-08
2.12802e-08
2.00717e-08
1.88506e-08
1.76331e-08
1.64597e-08
1.53285e-08
1.42148e-08
1.313e-08
1.20773e-08
1.10817e-08
1.0126e-08
9.20045e-09
8.2759e-09
7.30951e-09
6.57489e-09
6.18171e-09
5.51867e-09
4.30398e-09
4.35857e-09
4.89712e-09
8.29777e-10
-9.62053e-08
-1.54646e-08
2.0766e-08
2.35276e-08
2.48732e-08
2.45552e-08
2.4112e-08
2.32543e-08
2.21638e-08
2.12123e-08
2.01102e-08
1.89609e-08
1.77259e-08
1.65345e-08
1.53992e-08
1.42865e-08
1.32175e-08
1.2195e-08
1.12519e-08
1.03099e-08
9.34238e-09
8.36821e-09
7.41654e-09
6.68628e-09
5.77073e-09
5.4884e-09
5.37353e-09
5.43119e-09
4.27082e-09
1.40025e-09
-9.93322e-08
-2.78205e-08
1.0387e-08
1.93558e-08
2.29824e-08
2.39162e-08
2.36921e-08
2.30263e-08
2.20011e-08
2.10447e-08
2.01819e-08
1.91241e-08
1.78193e-08
1.65881e-08
1.54425e-08
1.43126e-08
1.32695e-08
1.22972e-08
1.14377e-08
1.05316e-08
9.41609e-09
8.32822e-09
7.47819e-09
6.52917e-09
5.54812e-09
6.42007e-09
6.5619e-09
6.10558e-09
6.71859e-09
3.45476e-09
-2.13511e-07
-8.73016e-08
2.19409e-09
1.86299e-08
2.24089e-08
2.37538e-08
2.3684e-08
2.30122e-08
2.16996e-08
2.06257e-08
2.04225e-08
1.95099e-08
1.78183e-08
1.66044e-08
1.54578e-08
1.42772e-08
1.32666e-08
1.23387e-08
1.15829e-08
1.10997e-08
9.26213e-09
8.05817e-09
7.55393e-09
6.85522e-09
4.59988e-09
7.57122e-09
8.58658e-09
9.63536e-09
1.37039e-08
1.25307e-08
-1.50548e-07
-7.11535e-08
-1.61531e-08
3.89741e-09
1.33801e-08
1.74731e-08
1.91275e-08
1.94044e-08
1.88275e-08
1.84999e-08
1.84544e-08
1.74861e-08
1.6317e-08
1.5218e-08
1.41715e-08
1.32317e-08
1.23293e-08
1.15323e-08
1.07581e-08
1.00933e-08
8.94286e-09
7.43909e-09
6.95236e-09
6.52701e-09
6.06395e-09
5.58379e-09
5.2519e-09
5.20071e-09
6.85051e-09
3.23127e-09
-2.45393e-08
-3.58314e-08
-1.60668e-08
4.73158e-09
1.39508e-08
1.78087e-08
1.92756e-08
1.95047e-08
1.91576e-08
1.87792e-08
1.82098e-08
1.73502e-08
1.63352e-08
1.52532e-08
1.4204e-08
1.32399e-08
1.23499e-08
1.15408e-08
1.0703e-08
9.80475e-09
8.87098e-09
7.77291e-09
6.98335e-09
6.43245e-09
5.91739e-09
5.33621e-09
4.56579e-09
3.2136e-09
1.66923e-09
4.19983e-09
4.72517e-09
4.18964e-10
3.66094e-09
1.15335e-08
1.65474e-08
1.90123e-08
1.99186e-08
1.9957e-08
1.96416e-08
1.89818e-08
1.81636e-08
1.73325e-08
1.62843e-08
1.52481e-08
1.42284e-08
1.32549e-08
1.23413e-08
1.14479e-08
1.06004e-08
9.68659e-09
8.7341e-09
7.93624e-09
7.08528e-09
6.34744e-09
5.71164e-09
4.97307e-09
3.96963e-09
2.56656e-09
1.21594e-09
2.30727e-09
7.49705e-08
3.58499e-08
1.78671e-08
1.89396e-08
2.02683e-08
2.09653e-08
2.10442e-08
2.06957e-08
2.01389e-08
1.92068e-08
1.82969e-08
1.73369e-08
1.62746e-08
1.52458e-08
1.42293e-08
1.32438e-08
1.23012e-08
1.13683e-08
1.04734e-08
9.60565e-09
8.66453e-09
7.93207e-09
7.14717e-09
6.34137e-09
5.62662e-09
4.83855e-09
3.88376e-09
2.80595e-09
1.62083e-09
2.02897e-09
8.22396e-08
4.9192e-08
2.73921e-08
2.49065e-08
2.39985e-08
2.31791e-08
2.24647e-08
2.15908e-08
2.05955e-08
1.95235e-08
1.84782e-08
1.73917e-08
1.63141e-08
1.52525e-08
1.42156e-08
1.32118e-08
1.22447e-08
1.12992e-08
1.03819e-08
9.49915e-09
8.64699e-09
7.84067e-09
7.13456e-09
6.41388e-09
5.67771e-09
4.85056e-09
4.05548e-09
2.58157e-09
1.78404e-09
2.20029e-09
6.08453e-08
4.11868e-08
3.06368e-08
2.8642e-08
2.61697e-08
2.51748e-08
2.38263e-08
2.24241e-08
2.11018e-08
1.98708e-08
1.86454e-08
1.74909e-08
1.63633e-08
1.52632e-08
1.41993e-08
1.31734e-08
1.21837e-08
1.12242e-08
1.02973e-08
9.40367e-09
8.57854e-09
7.82405e-09
7.07505e-09
6.44771e-09
5.84805e-09
4.61802e-09
3.61652e-09
3.22041e-09
1.96779e-09
1.73983e-09
4.37548e-08
2.97926e-08
2.79418e-08
2.96217e-08
2.81744e-08
2.60201e-08
2.46269e-08
2.32183e-08
2.16316e-08
2.01285e-08
1.88261e-08
1.75973e-08
1.64053e-08
1.52682e-08
1.418e-08
1.31323e-08
1.21186e-08
1.11392e-08
1.02095e-08
9.32874e-09
8.48578e-09
7.76452e-09
7.14678e-09
6.50106e-09
5.40267e-09
4.72164e-09
4.1864e-09
3.30066e-09
1.77706e-09
1.55176e-09
2.87488e-08
2.0256e-08
2.46351e-08
2.87467e-08
2.84231e-08
2.69762e-08
2.51827e-08
2.3513e-08
2.20092e-08
2.04434e-08
1.89897e-08
1.76682e-08
1.64377e-08
1.52697e-08
1.41551e-08
1.30856e-08
1.20515e-08
1.10601e-08
1.01132e-08
9.23688e-09
8.45926e-09
7.75812e-09
7.11278e-09
6.30144e-09
5.73331e-09
4.92807e-09
4.15864e-09
3.28723e-09
1.82428e-09
1.56742e-09
2.20914e-08
1.60928e-08
2.20597e-08
2.7256e-08
2.78903e-08
2.68499e-08
2.54839e-08
2.38581e-08
2.2185e-08
2.06205e-08
1.91236e-08
1.77161e-08
1.64457e-08
1.52626e-08
1.41287e-08
1.30388e-08
1.19889e-08
1.09786e-08
1.00166e-08
9.16992e-09
8.42718e-09
7.71624e-09
7.1256e-09
6.54385e-09
5.7654e-09
4.96555e-09
4.22232e-09
3.28863e-09
1.94497e-09
1.724e-09
2.86322e-08
1.57377e-08
1.91887e-08
2.54103e-08
2.70338e-08
2.65954e-08
2.53972e-08
2.39058e-08
2.22902e-08
2.06949e-08
1.91774e-08
1.77525e-08
1.64469e-08
1.52411e-08
1.41007e-08
1.29964e-08
1.19288e-08
1.09015e-08
9.95525e-09
9.11157e-09
8.36908e-09
7.71039e-09
7.14765e-09
6.57675e-09
5.93817e-09
5.19488e-09
4.25602e-09
3.13165e-09
1.86672e-09
1.94513e-09
2.31662e-08
1.21324e-08
1.67102e-08
2.39081e-08
2.6114e-08
2.60229e-08
2.51171e-08
2.38099e-08
2.2277e-08
2.06979e-08
1.91883e-08
1.77783e-08
1.64495e-08
1.52155e-08
1.40647e-08
1.29513e-08
1.18683e-08
1.08434e-08
9.91742e-09
9.06971e-09
8.31686e-09
7.68317e-09
7.15106e-09
6.61015e-09
5.98629e-09
5.29767e-09
4.41969e-09
3.0065e-09
1.43828e-09
1.9911e-09
1.10835e-08
5.71349e-09
1.43535e-08
2.24465e-08
2.51297e-08
2.54239e-08
2.47742e-08
2.36369e-08
2.21975e-08
2.06542e-08
1.91778e-08
1.77733e-08
1.64478e-08
1.52024e-08
1.40312e-08
1.29081e-08
1.18235e-08
1.08072e-08
9.8756e-09
9.03231e-09
8.27842e-09
7.65497e-09
7.15017e-09
6.63833e-09
6.03199e-09
5.34818e-09
4.4881e-09
3.17453e-09
1.26221e-09
1.55638e-09
-3.05086e-09
-1.09004e-09
1.2149e-08
2.10086e-08
2.42231e-08
2.48477e-08
2.44229e-08
2.34367e-08
2.20881e-08
2.06148e-08
1.91492e-08
1.77569e-08
1.64413e-08
1.5194e-08
1.40125e-08
1.28812e-08
1.17969e-08
1.0779e-08
9.84192e-09
8.99214e-09
8.25874e-09
7.65181e-09
7.14843e-09
6.6525e-09
6.05342e-09
5.35157e-09
4.37588e-09
2.98162e-09
1.89094e-09
1.49224e-09
-8.49551e-09
-5.07918e-09
1.00592e-08
1.97428e-08
2.34279e-08
2.43372e-08
2.41139e-08
2.32544e-08
2.20018e-08
2.05709e-08
1.91208e-08
1.77482e-08
1.64408e-08
1.51972e-08
1.40114e-08
1.28749e-08
1.17889e-08
1.07667e-08
9.82354e-09
8.97016e-09
8.23765e-09
7.66228e-09
7.15544e-09
6.66266e-09
6.06294e-09
5.36154e-09
4.39036e-09
3.05311e-09
2.02662e-09
1.46622e-09
-9.55437e-09
-6.60237e-09
8.67596e-09
1.88208e-08
2.28362e-08
2.39659e-08
2.38955e-08
2.31343e-08
2.19387e-08
2.05392e-08
1.9108e-08
1.77531e-08
1.64584e-08
1.52189e-08
1.40318e-08
1.28923e-08
1.18033e-08
1.07766e-08
9.82656e-09
8.96375e-09
8.23057e-09
7.66494e-09
7.16811e-09
6.67618e-09
6.07146e-09
5.38071e-09
4.43015e-09
3.10802e-09
2.06292e-09
1.44508e-09
-1.01444e-08
-7.20129e-09
8.10677e-09
1.83914e-08
2.2546e-08
2.37855e-08
2.37931e-08
2.30831e-08
2.19202e-08
2.05411e-08
1.9123e-08
1.77795e-08
1.6495e-08
1.52616e-08
1.40768e-08
1.29357e-08
1.18417e-08
1.08077e-08
9.84877e-09
8.97724e-09
8.24076e-09
7.67503e-09
7.17876e-09
6.68457e-09
6.07996e-09
5.39605e-09
4.45595e-09
3.13659e-09
2.08208e-09
1.44209e-09
-9.93287e-09
-7.11661e-09
8.23915e-09
1.84733e-08
2.25872e-08
2.38161e-08
2.38211e-08
2.31124e-08
2.1955e-08
2.05835e-08
1.91737e-08
1.78333e-08
1.65517e-08
1.5326e-08
1.4147e-08
1.30054e-08
1.19039e-08
1.08586e-08
9.89009e-09
9.01411e-09
8.26895e-09
7.69276e-09
7.18592e-09
6.6884e-09
6.08476e-09
5.40042e-09
4.4613e-09
3.14309e-09
2.09047e-09
1.45e-09
-8.95789e-09
-5.66356e-09
9.22869e-09
1.90031e-08
2.29105e-08
2.40422e-08
2.39794e-08
2.3227e-08
2.20426e-08
2.0666e-08
1.92549e-08
1.79111e-08
1.66325e-08
1.5413e-08
1.42411e-08
1.30996e-08
1.19889e-08
1.09315e-08
9.95148e-09
9.06668e-09
8.31353e-09
7.71637e-09
7.19502e-09
6.68783e-09
6.08158e-09
5.39192e-09
4.45607e-09
3.12541e-09
2.08668e-09
1.47663e-09
-5.67376e-11
-1.27485e-09
1.05424e-08
1.98154e-08
2.34432e-08
2.44227e-08
2.42484e-08
2.34269e-08
2.21813e-08
2.07703e-08
1.93667e-08
1.80136e-08
1.67346e-08
1.5519e-08
1.43548e-08
1.32147e-08
1.20933e-08
1.1024e-08
1.00332e-08
9.13862e-09
8.3676e-09
7.72978e-09
7.21822e-09
6.69219e-09
6.06505e-09
5.37009e-09
4.46985e-09
3.08832e-09
2.0121e-09
1.57973e-09
1.27142e-08
4.27946e-09
1.19767e-08
2.08942e-08
2.41685e-08
2.49114e-08
2.45895e-08
2.36652e-08
2.23648e-08
2.09188e-08
1.94909e-08
1.81343e-08
1.68465e-08
1.56361e-08
1.44849e-08
1.33472e-08
1.22138e-08
1.11276e-08
1.01293e-08
9.22183e-09
8.42293e-09
7.77557e-09
7.24417e-09
6.69318e-09
6.04848e-09
5.34234e-09
4.46059e-09
3.04273e-09
1.90107e-09
1.7357e-09
1.66095e-08
8.13681e-09
1.4367e-08
2.21096e-08
2.49868e-08
2.54833e-08
2.49572e-08
2.39224e-08
2.25522e-08
2.10818e-08
1.96371e-08
1.82536e-08
1.69634e-08
1.57654e-08
1.46253e-08
1.34874e-08
1.23511e-08
1.12436e-08
1.02282e-08
9.30761e-09
8.50662e-09
7.82829e-09
7.26481e-09
6.6886e-09
6.04563e-09
5.32799e-09
4.3443e-09
3.03838e-09
1.83984e-09
1.7947e-09
2.27175e-08
1.22198e-08
1.65904e-08
2.36074e-08
2.58288e-08
2.6004e-08
2.53e-08
2.41265e-08
2.27088e-08
2.12453e-08
1.9787e-08
1.83694e-08
1.70937e-08
1.591e-08
1.4758e-08
1.36202e-08
1.24925e-08
1.13891e-08
1.03296e-08
9.41051e-09
8.61635e-09
7.88394e-09
7.25928e-09
6.64359e-09
6.00715e-09
5.1857e-09
4.29391e-09
3.22673e-09
1.80052e-09
1.62672e-09
2.76136e-08
1.57398e-08
1.8829e-08
2.50424e-08
2.67406e-08
2.64989e-08
2.55881e-08
2.42267e-08
2.28211e-08
2.13535e-08
1.98849e-08
1.84954e-08
1.72304e-08
1.6037e-08
1.48861e-08
1.37524e-08
1.26269e-08
1.15292e-08
1.04726e-08
9.52185e-09
8.69362e-09
7.9605e-09
7.21615e-09
6.57494e-09
5.92038e-09
5.14702e-09
4.31493e-09
3.24065e-09
1.75112e-09
1.51368e-09
2.86487e-08
1.78652e-08
2.10658e-08
2.64122e-08
2.74609e-08
2.6918e-08
2.57467e-08
2.42969e-08
2.28198e-08
2.13328e-08
1.99196e-08
1.86053e-08
1.73471e-08
1.61576e-08
1.50122e-08
1.38839e-08
1.27624e-08
1.1667e-08
1.06238e-08
9.638e-09
8.72479e-09
7.9528e-09
7.24455e-09
6.5903e-09
5.96904e-09
5.19384e-09
4.25579e-09
3.22104e-09
1.69894e-09
1.48489e-09
2.8579e-08
1.98969e-08
2.32011e-08
2.74491e-08
2.78911e-08
2.69487e-08
2.56601e-08
2.41557e-08
2.27576e-08
2.13318e-08
1.99721e-08
1.86823e-08
1.74454e-08
1.62698e-08
1.51297e-08
1.40053e-08
1.28934e-08
1.18026e-08
1.07561e-08
9.76176e-09
8.83451e-09
8.00648e-09
7.25163e-09
6.57984e-09
5.93825e-09
5.20833e-09
4.32033e-09
3.18023e-09
1.67231e-09
1.48434e-09
2.91737e-08
2.2088e-08
2.47942e-08
2.77312e-08
2.76913e-08
2.66869e-08
2.52389e-08
2.39012e-08
2.26096e-08
2.13588e-08
2.00204e-08
1.87432e-08
1.75351e-08
1.63706e-08
1.52359e-08
1.41166e-08
1.30155e-08
1.19353e-08
1.08911e-08
9.89492e-09
9.01196e-09
8.13519e-09
7.27514e-09
6.52829e-09
5.85177e-09
5.2467e-09
4.34482e-09
3.17807e-09
1.69608e-09
1.51793e-09
3.67348e-08
2.57165e-08
2.46581e-08
2.6603e-08
2.66059e-08
2.58881e-08
2.46145e-08
2.35909e-08
2.25344e-08
2.12823e-08
2.00681e-08
1.88173e-08
1.76053e-08
1.64576e-08
1.53304e-08
1.42163e-08
1.31269e-08
1.20522e-08
1.10244e-08
1.00769e-08
9.14277e-09
8.28601e-09
7.43572e-09
6.52656e-09
5.92057e-09
5.32961e-09
4.02364e-09
3.16754e-09
1.99508e-09
1.61759e-09
4.5252e-08
2.78244e-08
2.12216e-08
2.35991e-08
2.47471e-08
2.47477e-08
2.40484e-08
2.32932e-08
2.24087e-08
2.12414e-08
2.00397e-08
1.89127e-08
1.76919e-08
1.65389e-08
1.54043e-08
1.42907e-08
1.32212e-08
1.21709e-08
1.11848e-08
1.02148e-08
9.23397e-09
8.44277e-09
7.50753e-09
6.51909e-09
5.74351e-09
5.66662e-09
4.79933e-09
3.67519e-09
1.58133e-09
1.86955e-09
5.62054e-08
2.13364e-08
1.10361e-08
1.91962e-08
2.30443e-08
2.39391e-08
2.36339e-08
2.30306e-08
2.21819e-08
2.12155e-08
2.00835e-08
1.89897e-08
1.7802e-08
1.66011e-08
1.54448e-08
1.43246e-08
1.32811e-08
1.22849e-08
1.13455e-08
1.03227e-08
9.38532e-09
8.46099e-09
7.47596e-09
6.48404e-09
5.82653e-09
6.05054e-09
5.68476e-09
4.43363e-09
2.74465e-09
3.13657e-09
9.60322e-09
-2.33953e-08
2.69573e-10
1.7606e-08
2.25622e-08
2.37261e-08
2.35635e-08
2.29261e-08
2.19573e-08
2.09324e-08
2.03057e-08
1.91713e-08
1.78929e-08
1.66175e-08
1.54385e-08
1.43217e-08
1.32812e-08
1.23633e-08
1.14766e-08
1.06373e-08
9.40736e-09
8.24227e-09
7.50777e-09
6.56944e-09
5.70996e-09
6.64296e-09
7.33095e-09
7.02884e-09
4.71559e-09
7.92467e-09
-1.33252e-07
-5.32193e-08
-5.25997e-09
7.71409e-09
1.47298e-08
1.80523e-08
1.93414e-08
1.95517e-08
1.92476e-08
1.87541e-08
1.81524e-08
1.73552e-08
1.62873e-08
1.52194e-08
1.41716e-08
1.32077e-08
1.23189e-08
1.1485e-08
1.06741e-08
9.80602e-09
8.77327e-09
7.8083e-09
6.97541e-09
6.33163e-09
5.74252e-09
5.12744e-09
4.41881e-09
4.03102e-09
4.66025e-09
8.46887e-10
-1.15184e-08
-1.6926e-08
-4.60233e-09
8.42312e-09
1.52169e-08
1.83552e-08
1.95277e-08
1.96951e-08
1.94178e-08
1.89304e-08
1.81161e-08
1.72064e-08
1.63275e-08
1.52429e-08
1.41835e-08
1.32165e-08
1.23199e-08
1.15184e-08
1.05902e-08
9.61114e-09
8.80499e-09
7.89961e-09
6.99657e-09
6.26852e-09
5.6599e-09
4.9084e-09
3.91087e-09
2.55784e-09
1.08633e-09
2.35264e-09
3.67688e-08
2.4787e-08
1.33994e-08
1.44733e-08
1.76531e-08
1.95221e-08
2.01786e-08
2.01627e-08
1.97489e-08
1.90796e-08
1.81887e-08
1.72191e-08
1.62805e-08
1.52343e-08
1.42012e-08
1.32276e-08
1.2303e-08
1.14355e-08
1.04885e-08
9.5478e-09
8.74091e-09
7.88764e-09
7.0473e-09
6.22319e-09
5.49924e-09
4.64175e-09
3.45547e-09
2.0291e-09
1.40376e-09
1.46801e-09
9.55263e-08
5.82538e-08
2.78451e-08
2.18986e-08
2.14389e-08
2.15087e-08
2.13126e-08
2.08787e-08
2.02216e-08
1.93313e-08
1.83177e-08
1.7201e-08
1.6224e-08
1.52648e-08
1.42223e-08
1.32281e-08
1.22972e-08
1.13508e-08
1.03149e-08
9.45587e-09
8.67825e-09
7.88332e-09
7.06648e-09
6.21893e-09
5.44093e-09
4.58713e-09
3.43171e-09
2.24493e-09
1.56933e-09
1.02419e-09
9.11819e-08
6.64557e-08
3.74891e-08
2.80731e-08
2.51976e-08
2.37748e-08
2.27582e-08
2.17513e-08
2.07427e-08
1.96223e-08
1.84076e-08
1.72956e-08
1.62778e-08
1.52575e-08
1.42094e-08
1.32009e-08
1.22343e-08
1.12705e-08
1.02765e-08
9.32973e-09
8.56528e-09
7.84023e-09
7.05465e-09
6.28771e-09
5.5219e-09
4.61337e-09
3.47107e-09
2.24583e-09
1.60133e-09
1.1279e-09
7.25973e-08
5.876e-08
4.04544e-08
3.1611e-08
2.76682e-08
2.59309e-08
2.4227e-08
2.26383e-08
2.12423e-08
1.9875e-08
1.8582e-08
1.74315e-08
1.63221e-08
1.52526e-08
1.41918e-08
1.31639e-08
1.21647e-08
1.11798e-08
1.0205e-08
9.27835e-09
8.447e-09
7.74561e-09
7.03347e-09
6.39656e-09
5.81598e-09
4.6034e-09
3.00331e-09
2.41207e-09
1.92637e-09
1.03338e-09
5.65254e-08
4.8457e-08
3.84884e-08
3.33275e-08
2.97439e-08
2.67619e-08
2.50455e-08
2.34367e-08
2.16397e-08
2.01287e-08
1.88118e-08
1.75493e-08
1.63563e-08
1.52307e-08
1.41704e-08
1.31242e-08
1.20908e-08
1.1066e-08
1.01118e-08
9.23044e-09
8.41802e-09
7.6242e-09
7.02575e-09
6.48988e-09
5.36173e-09
4.59571e-09
3.82594e-09
2.7516e-09
1.65352e-09
9.05513e-10
4.1918e-08
4.08773e-08
3.64781e-08
3.27608e-08
3.00294e-08
2.77139e-08
2.55875e-08
2.36809e-08
2.20942e-08
2.04145e-08
1.89439e-08
1.76226e-08
1.63719e-08
1.52199e-08
1.41412e-08
1.3074e-08
1.20164e-08
1.09729e-08
1.00018e-08
9.1393e-09
8.35654e-09
7.67905e-09
7.0251e-09
6.22855e-09
5.67904e-09
4.80198e-09
3.84294e-09
2.72187e-09
1.73032e-09
9.32634e-10
4.66937e-08
4.1763e-08
3.45586e-08
3.1342e-08
2.95021e-08
2.75795e-08
2.58158e-08
2.40391e-08
2.23271e-08
2.06368e-08
1.90686e-08
1.76168e-08
1.63627e-08
1.52206e-08
1.41093e-08
1.3019e-08
1.19506e-08
1.08934e-08
9.87424e-09
9.02203e-09
8.32259e-09
7.6632e-09
7.07709e-09
6.40891e-09
5.65931e-09
4.82449e-09
3.96321e-09
2.74197e-09
1.81176e-09
9.90178e-10
5.78595e-08
4.42671e-08
3.22412e-08
2.96741e-08
2.8612e-08
2.70753e-08
2.56769e-08
2.42153e-08
2.24668e-08
2.07442e-08
1.91421e-08
1.76322e-08
1.63377e-08
1.5199e-08
1.40756e-08
1.29645e-08
1.18893e-08
1.07919e-08
9.76958e-09
8.95082e-09
8.26337e-09
7.66518e-09
7.16528e-09
6.52753e-09
5.66087e-09
4.87494e-09
4.06679e-09
2.72713e-09
1.82471e-09
1.08885e-09
4.86157e-08
4.05528e-08
3.04142e-08
2.81247e-08
2.75223e-08
2.65102e-08
2.55556e-08
2.4158e-08
2.24609e-08
2.07352e-08
1.9158e-08
1.76631e-08
1.63329e-08
1.51393e-08
1.40243e-08
1.29105e-08
1.17967e-08
1.07185e-08
9.73041e-09
8.91209e-09
8.20849e-09
7.60769e-09
7.16001e-09
6.6634e-09
5.83811e-09
4.90533e-09
3.99984e-09
2.70577e-09
1.87591e-09
1.11812e-09
4.40754e-08
3.59871e-08
2.74378e-08
2.6259e-08
2.66131e-08
2.61125e-08
2.52734e-08
2.40019e-08
2.23969e-08
2.0701e-08
1.9097e-08
1.76622e-08
1.63564e-08
1.51091e-08
1.39516e-08
1.28353e-08
1.17148e-08
1.06848e-08
9.73687e-09
8.8338e-09
8.14598e-09
7.58981e-09
7.15633e-09
6.70851e-09
6.00128e-09
5.15883e-09
3.88648e-09
2.66314e-09
1.93855e-09
1.00127e-09
3.70316e-08
3.11328e-08
2.46867e-08
2.4868e-08
2.58626e-08
2.55437e-08
2.49468e-08
2.38471e-08
2.23124e-08
2.06247e-08
1.90694e-08
1.76687e-08
1.63374e-08
1.50801e-08
1.39106e-08
1.27791e-08
1.16729e-08
1.06322e-08
9.69955e-09
8.84127e-09
8.08592e-09
7.58011e-09
7.19625e-09
6.74759e-09
6.0405e-09
5.18277e-09
4.01982e-09
2.60879e-09
1.99237e-09
1.02137e-09
3.3181e-08
2.82471e-08
2.28924e-08
2.3784e-08
2.50965e-08
2.5019e-08
2.46497e-08
2.37077e-08
2.22144e-08
2.05676e-08
1.90688e-08
1.76653e-08
1.63207e-08
1.50731e-08
1.38913e-08
1.27509e-08
1.16503e-08
1.06104e-08
9.66402e-09
8.83614e-09
8.09809e-09
7.56006e-09
7.22908e-09
6.78417e-09
6.04581e-09
5.20542e-09
4.16026e-09
2.59431e-09
1.97813e-09
1.01641e-09
3.38646e-08
2.75942e-08
2.17115e-08
2.29306e-08
2.45092e-08
2.46633e-08
2.4459e-08
2.36004e-08
2.21586e-08
2.05423e-08
1.9047e-08
1.7669e-08
1.63426e-08
1.50902e-08
1.3901e-08
1.2756e-08
1.16559e-08
1.06182e-08
9.6747e-09
8.81355e-09
8.09304e-09
7.57296e-09
7.25251e-09
6.80602e-09
6.05234e-09
5.23386e-09
4.22787e-09
2.62751e-09
1.97839e-09
1.00608e-09
3.39884e-08
2.72811e-08
2.11777e-08
2.25167e-08
2.42273e-08
2.44944e-08
2.43694e-08
2.3556e-08
2.21449e-08
2.05497e-08
1.90591e-08
1.76922e-08
1.63821e-08
1.51333e-08
1.3945e-08
1.27981e-08
1.16934e-08
1.06499e-08
9.69785e-09
8.81961e-09
8.10454e-09
7.58786e-09
7.26504e-09
6.8156e-09
6.06016e-09
5.25133e-09
4.25678e-09
2.65366e-09
1.98754e-09
1.00338e-09
3.24024e-08
2.67441e-08
2.12452e-08
2.25783e-08
2.42856e-08
2.45316e-08
2.43914e-08
2.35874e-08
2.218e-08
2.05866e-08
1.91202e-08
1.7754e-08
1.64332e-08
1.52005e-08
1.40235e-08
1.2877e-08
1.17612e-08
1.06993e-08
9.73357e-09
8.87328e-09
8.13048e-09
7.5974e-09
7.2691e-09
6.81584e-09
6.06249e-09
5.24574e-09
4.25732e-09
2.67244e-09
2.00236e-09
1.00721e-09
3.19934e-08
2.71238e-08
2.18778e-08
2.30008e-08
2.46161e-08
2.47726e-08
2.45456e-08
2.36893e-08
2.2275e-08
2.0672e-08
1.92022e-08
1.78239e-08
1.65211e-08
1.52969e-08
1.41342e-08
1.299e-08
1.18592e-08
1.07794e-08
9.79197e-09
8.92825e-09
8.16437e-09
7.62632e-09
7.2667e-09
6.80268e-09
6.05947e-09
5.2154e-09
4.2082e-09
2.71195e-09
2.02976e-09
1.00909e-09
3.64027e-08
2.96296e-08
2.30998e-08
2.36082e-08
2.51044e-08
2.52124e-08
2.48217e-08
2.38409e-08
2.24142e-08
2.08207e-08
1.92799e-08
1.79232e-08
1.6639e-08
1.54195e-08
1.42685e-08
1.31305e-08
1.19796e-08
1.08844e-08
9.89772e-09
8.96043e-09
8.20259e-09
7.68001e-09
7.2622e-09
6.77683e-09
6.0417e-09
5.17121e-09
4.07997e-09
2.79731e-09
2.07993e-09
1.00428e-09
3.8666e-08
3.18597e-08
2.51195e-08
2.49234e-08
2.5668e-08
2.56329e-08
2.51598e-08
2.40474e-08
2.25712e-08
2.09858e-08
1.9453e-08
1.80162e-08
1.67564e-08
1.55511e-08
1.44272e-08
1.32957e-08
1.21168e-08
1.10113e-08
9.96962e-09
9.02588e-09
8.3075e-09
7.7136e-09
7.27636e-09
6.7633e-09
5.98309e-09
5.02687e-09
4.03891e-09
2.84162e-09
2.041e-09
1.04899e-09
3.53932e-08
3.25974e-08
2.74153e-08
2.66024e-08
2.67085e-08
2.60656e-08
2.53751e-08
2.42972e-08
2.2763e-08
2.11557e-08
1.9631e-08
1.81468e-08
1.68353e-08
1.57146e-08
1.45997e-08
1.34516e-08
1.23063e-08
1.11156e-08
1.00247e-08
9.14731e-09
8.40825e-09
7.77531e-09
7.30607e-09
6.69673e-09
5.8063e-09
4.98914e-09
4.12217e-09
2.84222e-09
1.8943e-09
1.06583e-09
3.68106e-08
3.3897e-08
2.92948e-08
2.81391e-08
2.77339e-08
2.67189e-08
2.56602e-08
2.44434e-08