# y+ ()         
# Time          	patch           	min             	max             	average         
50              	wall1	4.39756124e+00	5.35094281e+00	5.00848548e+00
50              	sphere1	5.45559008e-01	2.10524932e+00	1.75931276e+00
100             	wall1	4.32247631e+00	5.32457494e+00	4.95635950e+00
100             	sphere1	2.69816997e-01	1.90721330e+00	1.49935538e+00
150             	wall1	4.24983844e+00	5.31506711e+00	4.90599576e+00
150             	sphere1	1.71151154e-01	1.83304192e+00	1.33540473e+00
200             	wall1	4.17932157e+00	5.31156039e+00	4.85720745e+00
200             	sphere1	1.23036778e-01	1.79797142e+00	1.25439614e+00
250             	wall1	4.08579247e+00	5.31020121e+00	4.80988820e+00
250             	sphere1	1.40951839e-01	1.78275936e+00	1.21784852e+00
300             	wall1	3.99049903e+00	5.30956363e+00	4.76396596e+00
300             	sphere1	2.71335697e-01	1.77127536e+00	1.20365409e+00
350             	wall1	3.89764464e+00	5.30922788e+00	4.71938120e+00
350             	sphere1	3.84645994e-01	1.76241969e+00	1.19126242e+00
400             	wall1	3.80863456e+00	5.30901350e+00	4.67608743e+00
400             	sphere1	3.05588439e-01	1.75574473e+00	1.17890288e+00
450             	wall1	3.72324141e+00	5.30886011e+00	4.63404144e+00
450             	sphere1	2.39988945e-01	1.75048402e+00	1.16706437e+00
500             	wall1	3.64085548e+00	5.30874645e+00	4.59320273e+00
500             	sphere1	1.99831679e-01	1.74619093e+00	1.15647186e+00
550             	wall1	3.55880820e+00	5.30866317e+00	4.55353093e+00
550             	sphere1	1.84138291e-01	1.74252092e+00	1.14775348e+00
600             	wall1	3.47992641e+00	5.30860120e+00	4.51498625e+00
600             	sphere1	1.80032359e-01	1.73945118e+00	1.14107319e+00
650             	wall1	3.40408334e+00	5.30855415e+00	4.47753145e+00
650             	sphere1	1.86078598e-01	1.73684501e+00	1.13594903e+00
700             	wall1	3.33115431e+00	5.30851831e+00	4.44112972e+00
700             	sphere1	1.97679675e-01	1.73450794e+00	1.13166076e+00
750             	wall1	3.26102607e+00	5.30849068e+00	4.40574483e+00
750             	sphere1	2.14284633e-01	1.73229684e+00	1.12778521e+00
800             	wall1	3.19359143e+00	5.30846900e+00	4.37134228e+00
800             	sphere1	2.30350456e-01	1.73013925e+00	1.12415046e+00
850             	wall1	3.12885449e+00	5.30845169e+00	4.33788880e+00
850             	sphere1	2.44479396e-01	1.72804357e+00	1.12065971e+00
900             	wall1	3.06674291e+00	5.30843753e+00	4.30535170e+00
900             	sphere1	2.56535323e-01	1.72605727e+00	1.11729417e+00
950             	wall1	3.00706400e+00	5.30842568e+00	4.27369999e+00
950             	sphere1	2.66797724e-01	1.72424419e+00	1.11402993e+00
1000            	wall1	2.94967825e+00	5.30841555e+00	4.24290441e+00
1000            	sphere1	2.75637768e-01	1.72264433e+00	1.11092095e+00
1050            	wall1	2.89447735e+00	5.30840674e+00	4.21293602e+00
1050            	sphere1	2.83379736e-01	1.72126815e+00	1.10797920e+00
1100            	wall1	2.84135149e+00	5.30839897e+00	4.18376727e+00
1100            	sphere1	2.90438831e-01	1.72009262e+00	1.10524108e+00
1150            	wall1	2.79022919e+00	5.30839210e+00	4.15537189e+00
1150            	sphere1	2.96866613e-01	1.71908009e+00	1.10271722e+00
1200            	wall1	2.74109977e+00	5.30838596e+00	4.12772521e+00
1200            	sphere1	3.02648087e-01	1.71820443e+00	1.10039605e+00
1250            	wall1	2.69373988e+00	5.30838043e+00	4.10080282e+00
1250            	sphere1	3.07934727e-01	1.71741642e+00	1.09827141e+00
1300            	wall1	2.64804992e+00	5.30837543e+00	4.07458113e+00
1300            	sphere1	3.12797793e-01	1.71668608e+00	1.09631026e+00
1350            	wall1	2.60389027e+00	5.30837086e+00	4.04903744e+00
1350            	sphere1	3.17190390e-01	1.71599518e+00	1.09450243e+00
1400            	wall1	2.56121483e+00	5.30836668e+00	4.02415088e+00
1400            	sphere1	3.21218569e-01	1.71533719e+00	1.09284421e+00
1450            	wall1	2.52000441e+00	5.30836285e+00	3.99990073e+00
1450            	sphere1	3.25047420e-01	1.71470680e+00	1.09132288e+00
1500            	wall1	2.48021556e+00	5.30835934e+00	3.97626680e+00
1500            	sphere1	3.28431504e-01	1.71409806e+00	1.08992052e+00
1550            	wall1	2.44181217e+00	5.30835609e+00	3.95323002e+00
1550            	sphere1	3.31322452e-01	1.71351043e+00	1.08861193e+00
1600            	wall1	2.40474765e+00	5.30835309e+00	3.93077229e+00
1600            	sphere1	3.33930046e-01	1.71294331e+00	1.08739879e+00
1650            	wall1	2.36896907e+00	5.30835031e+00	3.90887688e+00
1650            	sphere1	3.36212632e-01	1.71239690e+00	1.08625427e+00
1700            	wall1	2.33443326e+00	5.30834774e+00	3.88752694e+00
1700            	sphere1	3.38347856e-01	1.71187224e+00	1.08517400e+00
1750            	wall1	2.30107036e+00	5.30834534e+00	3.86670622e+00
1750            	sphere1	3.40406737e-01	1.71137037e+00	1.08416017e+00
1800            	wall1	2.26883952e+00	5.30834311e+00	3.84639970e+00
1800            	sphere1	3.42304776e-01	1.71089263e+00	1.08319652e+00
1850            	wall1	2.23769718e+00	5.30834103e+00	3.82659307e+00
1850            	sphere1	3.44047311e-01	1.71044022e+00	1.08227449e+00
1900            	wall1	2.20762002e+00	5.30833909e+00	3.80727179e+00
1900            	sphere1	3.45720622e-01	1.71001354e+00	1.08140702e+00
1950            	wall1	2.17855827e+00	5.30833727e+00	3.78842177e+00
1950            	sphere1	3.47303231e-01	1.70961367e+00	1.08058217e+00
2000            	wall1	2.15046727e+00	5.30833556e+00	3.77002894e+00
2000            	sphere1	3.48744459e-01	1.70924383e+00	1.07978869e+00
2050            	wall1	2.12330382e+00	5.30833396e+00	3.75207974e+00
2050            	sphere1	3.50096618e-01	1.70889854e+00	1.07903235e+00
2100            	wall1	2.09702908e+00	5.30833245e+00	3.73456108e+00
2100            	sphere1	3.51372651e-01	1.70857638e+00	1.07831313e+00
2150            	wall1	2.07160614e+00	5.30833102e+00	3.71746053e+00
2150            	sphere1	3.52584546e-01	1.70827522e+00	1.07762673e+00
2200            	wall1	2.04699754e+00	5.30832968e+00	3.70076604e+00
2200            	sphere1	3.53720560e-01	1.70799265e+00	1.07697232e+00
2250            	wall1	2.02316591e+00	5.30832840e+00	3.68446614e+00
2250            	sphere1	3.54787612e-01	1.70772630e+00	1.07634896e+00
2300            	wall1	2.00007772e+00	5.30832720e+00	3.66854968e+00
2300            	sphere1	3.55796536e-01	1.70747311e+00	1.07575444e+00
2350            	wall1	1.97766515e+00	5.30832606e+00	3.65300591e+00
2350            	sphere1	3.56747497e-01	1.70723038e+00	1.07518646e+00
2400            	wall1	1.95584778e+00	5.30832498e+00	3.63782444e+00
2400            	sphere1	3.57644558e-01	1.70699562e+00	1.07464384e+00
2450            	wall1	1.93471557e+00	5.30832395e+00	3.62299502e+00
2450            	sphere1	3.58486975e-01	1.70676664e+00	1.07412546e+00
2500            	wall1	1.91423851e+00	5.30832297e+00	3.60850772e+00
2500            	sphere1	3.59280073e-01	1.70654126e+00	1.07362902e+00
2550            	wall1	1.89438408e+00	5.30832204e+00	3.59435306e+00
2550            	sphere1	3.60018510e-01	1.70631810e+00	1.07315168e+00
2600            	wall1	1.87512972e+00	5.30832116e+00	3.58052187e+00
2600            	sphere1	3.60706965e-01	1.70609552e+00	1.07269174e+00
2650            	wall1	1.85644790e+00	5.30832031e+00	3.56700522e+00
2650            	sphere1	3.61348912e-01	1.70587202e+00	1.07224734e+00
2700            	wall1	1.83831883e+00	5.30831950e+00	3.55379458e+00
2700            	sphere1	3.61952178e-01	1.70564612e+00	1.07181717e+00
2750            	wall1	1.82071697e+00	5.30831873e+00	3.54088157e+00
2750            	sphere1	3.62512135e-01	1.70541702e+00	1.07139974e+00
2800            	wall1	1.80362004e+00	5.30831800e+00	3.52825821e+00
2800            	sphere1	3.63033789e-01	1.70518410e+00	1.07099505e+00
2850            	wall1	1.78700695e+00	5.30831729e+00	3.51591664e+00
2850            	sphere1	3.63524191e-01	1.70494677e+00	1.07060223e+00
2900            	wall1	1.77085808e+00	5.30831662e+00	3.50384929e+00
2900            	sphere1	3.63986460e-01	1.70470487e+00	1.07022015e+00
2950            	wall1	1.75507173e+00	5.30831597e+00	3.49204884e+00
2950            	sphere1	3.64419817e-01	1.70445705e+00	1.06984772e+00
3000            	wall1	1.73964497e+00	5.30831536e+00	3.48050817e+00
3000            	sphere1	3.64821113e-01	1.70420328e+00	1.06948434e+00
3050            	wall1	1.72461011e+00	5.30831476e+00	3.46922048e+00
3050            	sphere1	3.65193540e-01	1.70394612e+00	1.06912961e+00
3100            	wall1	1.70995156e+00	5.30831420e+00	3.45817914e+00
3100            	sphere1	3.65540647e-01	1.70368640e+00	1.06878316e+00
3150            	wall1	1.69565450e+00	5.30831365e+00	3.44737763e+00
3150            	sphere1	3.65869208e-01	1.70342499e+00	1.06844492e+00
3200            	wall1	1.68170514e+00	5.30831313e+00	3.43680969e+00
3200            	sphere1	3.66176821e-01	1.70316291e+00	1.06811444e+00
3250            	wall1	1.66809068e+00	5.30831263e+00	3.42646931e+00
3250            	sphere1	3.66462745e-01	1.70290144e+00	1.06779154e+00
3300            	wall1	1.65479873e+00	5.30831215e+00	3.41635069e+00
3300            	sphere1	3.66729019e-01	1.70264192e+00	1.06747623e+00
3350            	wall1	1.64181777e+00	5.30831169e+00	3.40644817e+00
3350            	sphere1	3.66980440e-01	1.70238576e+00	1.06716857e+00
3400            	wall1	1.62913723e+00	5.30831124e+00	3.39675631e+00
3400            	sphere1	3.67218055e-01	1.70213447e+00	1.06686923e+00
3450            	wall1	1.61510767e+00	5.30831082e+00	3.38726971e+00
3450            	sphere1	3.67441452e-01	1.70188968e+00	1.06657849e+00
3500            	wall1	1.60083522e+00	5.30831040e+00	3.37798310e+00
3500            	sphere1	3.67649564e-01	1.70165286e+00	1.06629620e+00
3550            	wall1	1.58685118e+00	5.30831001e+00	3.36889131e+00
3550            	sphere1	3.67847539e-01	1.70142530e+00	1.06602291e+00
3600            	wall1	1.57314737e+00	5.30830963e+00	3.35998946e+00
3600            	sphere1	3.68037693e-01	1.70120807e+00	1.06575902e+00
3650            	wall1	1.55971592e+00	5.30830926e+00	3.35127288e+00
3650            	sphere1	3.68219870e-01	1.70100224e+00	1.06550481e+00
3700            	wall1	1.54654910e+00	5.30830891e+00	3.34273695e+00
3700            	sphere1	3.68397335e-01	1.70080853e+00	1.06526077e+00
3750            	wall1	1.53363707e+00	5.30830857e+00	3.33437718e+00
3750            	sphere1	3.68570516e-01	1.70062754e+00	1.06502713e+00
3800            	wall1	1.52096832e+00	5.30830824e+00	3.32618924e+00
3800            	sphere1	3.68739278e-01	1.70045971e+00	1.06480405e+00
3850            	wall1	1.50853610e+00	5.30830792e+00	3.31816888e+00
3850            	sphere1	3.68906300e-01	1.70030514e+00	1.06459168e+00
3900            	wall1	1.49633507e+00	5.30830762e+00	3.31031203e+00
3900            	sphere1	3.69069040e-01	1.70016385e+00	1.06438996e+00
3950            	wall1	1.48435940e+00	5.30830733e+00	3.30261470e+00
3950            	sphere1	3.69228820e-01	1.70003562e+00	1.06419888e+00
4000            	wall1	1.47260340e+00	5.30830704e+00	3.29507298e+00
4000            	sphere1	3.69386119e-01	1.69992002e+00	1.06401825e+00
4050            	wall1	1.46106205e+00	5.30830677e+00	3.28768308e+00
4050            	sphere1	3.69538172e-01	1.69981657e+00	1.06384784e+00
4100            	wall1	1.44973065e+00	5.30830651e+00	3.28044136e+00
4100            	sphere1	3.69685300e-01	1.69972471e+00	1.06368745e+00
4150            	wall1	1.43860435e+00	5.30830625e+00	3.27334428e+00
4150            	sphere1	3.69828873e-01	1.69964371e+00	1.06353687e+00
4200            	wall1	1.42767824e+00	5.30830600e+00	3.26638841e+00
4200            	sphere1	3.69971615e-01	1.69957280e+00	1.06339573e+00
4250            	wall1	1.41694738e+00	5.30830577e+00	3.25957046e+00
4250            	sphere1	3.70117039e-01	1.69951123e+00	1.06326361e+00
