/*--------------------------------*- C++ -*----------------------------------*\
| =========                 |                                                 |
| \\      /  F ield         | OpenFOAM: The Open Source CFD Toolbox           |
|  \\    /   O peration     | Version:  2212                                  |
|   \\  /    A nd           | Website:  www.openfoam.com                      |
|    \\/     M anipulation  |                                                 |
\*---------------------------------------------------------------------------*/
FoamFile
{
    version     2.0;
    format      ascii;
    arch        "LSB;label=32;scalar=64";
    class       volScalarField;
    location    "0";
    object      p;
}
// * * * * * * * * * * * * * * * * * * * * * * * * * * * * * * * * * * * * * //

dimensions      [0 2 -2 0 0 0 0];

internalField   nonuniform List<scalar> 
179928
(
-7.84257e-08
-2.74905e-08
-2.86007e-09
1.27012e-09
3.39801e-09
4.34536e-09
4.80012e-09
4.92754e-09
4.64461e-09
4.24895e-09
4.83541e-09
4.51373e-09
3.99597e-09
3.82713e-09
3.53282e-09
3.31095e-09
3.07252e-09
2.87835e-09
2.67292e-09
2.78073e-09
2.21659e-09
1.50226e-09
1.86509e-09
1.69436e-09
1.56644e-09
1.48833e-09
1.55873e-09
1.71411e-09
4.60997e-09
3.67792e-09
-3.24043e-08
-1.68044e-08
-3.7186e-09
1.29184e-09
3.50166e-09
4.44303e-09
4.81806e-09
4.88045e-09
4.75846e-09
4.59554e-09
4.55916e-09
4.40966e-09
4.08327e-09
3.81432e-09
3.5504e-09
3.30757e-09
3.08366e-09
2.88705e-09
2.71653e-09
2.51506e-09
2.17929e-09
1.8744e-09
1.76338e-09
1.64246e-09
1.52172e-09
1.41713e-09
1.31141e-09
1.18952e-09
1.4423e-09
1.15979e-09
-2.68085e-08
-8.04289e-09
1.39531e-09
3.02624e-09
4.15018e-09
4.74544e-09
4.98415e-09
4.98371e-09
4.8507e-09
4.70923e-09
4.56581e-09
4.35623e-09
4.08117e-09
3.8121e-09
3.55657e-09
3.31307e-09
3.08445e-09
2.86864e-09
2.67024e-09
2.4557e-09
2.19777e-09
1.93568e-09
1.75731e-09
1.62279e-09
1.46922e-09
1.30915e-09
1.13836e-09
1.01599e-09
1.11717e-09
1.15682e-10
-1.84529e-08
-7.90789e-10
5.39228e-09
4.97888e-09
5.09323e-09
5.23324e-09
5.26547e-09
5.15134e-09
4.97703e-09
4.80841e-09
4.58673e-09
4.3458e-09
4.07767e-09
3.81202e-09
3.5566e-09
3.31045e-09
3.07525e-09
2.84857e-09
2.634e-09
2.41687e-09
2.19129e-09
1.97297e-09
1.75233e-09
1.6174e-09
1.44699e-09
1.27813e-09
1.14918e-09
1.20273e-09
1.42948e-09
-8.14539e-11
-1.19363e-08
2.94043e-09
7.22571e-09
6.40551e-09
6.00906e-09
5.77715e-09
5.59346e-09
5.39009e-09
5.13082e-09
4.87236e-09
4.62234e-09
4.35764e-09
4.08442e-09
3.81429e-09
3.55397e-09
3.30283e-09
3.06234e-09
2.83034e-09
2.60775e-09
2.38812e-09
2.16723e-09
1.95954e-09
1.79411e-09
1.61948e-09
1.44571e-09
1.28496e-09
1.19726e-09
1.11205e-09
1.2417e-09
3.41276e-10
-1.57414e-08
1.64854e-09
7.94791e-09
7.0521e-09
6.58104e-09
6.29381e-09
5.91497e-09
5.60772e-09
5.2675e-09
4.94428e-09
4.66669e-09
4.38176e-09
4.0985e-09
3.81877e-09
3.55075e-09
3.29345e-09
3.04841e-09
2.81368e-09
2.58748e-09
2.36555e-09
2.14516e-09
1.93974e-09
1.79602e-09
1.62086e-09
1.4719e-09
1.31146e-09
9.76124e-10
9.99578e-10
1.289e-09
3.18038e-10
-1.993e-08
-1.13672e-09
7.26981e-09
7.39827e-09
7.01732e-09
6.46774e-09
6.12745e-09
5.7875e-09
5.39792e-09
5.0386e-09
4.70349e-09
4.40318e-09
4.1105e-09
3.82234e-09
3.54636e-09
3.28315e-09
3.03312e-09
2.79506e-09
2.56499e-09
2.33645e-09
2.12846e-09
1.94574e-09
1.79198e-09
1.63175e-09
1.37589e-09
1.23118e-09
1.1881e-09
1.05625e-09
1.15121e-09
2.16204e-10
-2.2878e-08
-3.54467e-09
6.29019e-09
7.14312e-09
7.08261e-09
6.72018e-09
6.26922e-09
5.86259e-09
5.49061e-09
5.11062e-09
4.75397e-09
4.42459e-09
4.11527e-09
3.82036e-09
3.5402e-09
3.27212e-09
3.01583e-09
2.77166e-09
2.54128e-09
2.32378e-09
2.1263e-09
1.94329e-09
1.78423e-09
1.59173e-09
1.4572e-09
1.30611e-09
1.16946e-09
1.05442e-09
1.12043e-09
2.22536e-10
-2.48684e-08
-5.06283e-09
5.50899e-09
6.78452e-09
6.99585e-09
6.71645e-09
6.33912e-09
5.94374e-09
5.53739e-09
5.14991e-09
4.78383e-09
4.44051e-09
4.11927e-09
3.81772e-09
3.5338e-09
3.26153e-09
3.00025e-09
2.75166e-09
2.52257e-09
2.3103e-09
2.11623e-09
1.93679e-09
1.78986e-09
1.64381e-09
1.46774e-09
1.36431e-09
1.22018e-09
1.06736e-09
1.16715e-09
2.61717e-10
-2.62528e-08
-5.68291e-09
5.15568e-09
6.47518e-09
6.76135e-09
6.62374e-09
6.31518e-09
5.95084e-09
5.55785e-09
5.16763e-09
4.79803e-09
4.4509e-09
4.12119e-09
3.81456e-09
3.52705e-09
3.2513e-09
2.98621e-09
2.7353e-09
2.50663e-09
2.297e-09
2.10407e-09
1.93496e-09
1.79102e-09
1.64675e-09
1.5029e-09
1.3755e-09
1.26757e-09
1.24492e-09
1.32205e-09
6.26836e-11
-2.63767e-08
-6.01856e-09
4.71046e-09
6.04274e-09
6.4817e-09
6.46837e-09
6.24558e-09
5.92333e-09
5.55176e-09
5.17066e-09
4.80423e-09
4.45318e-09
4.12178e-09
3.81167e-09
3.52033e-09
3.24169e-09
2.97441e-09
2.72307e-09
2.49299e-09
2.2839e-09
2.09508e-09
1.9304e-09
1.78992e-09
1.65455e-09
1.5152e-09
1.37228e-09
1.24166e-09
1.19633e-09
1.34415e-09
-1.22391e-10
-2.5808e-08
-6.87064e-09
3.90087e-09
5.6039e-09
6.21775e-09
6.30936e-09
6.15508e-09
5.87701e-09
5.53169e-09
5.16481e-09
4.79998e-09
4.45144e-09
4.12143e-09
3.80957e-09
3.51487e-09
3.23382e-09
2.96565e-09
2.71428e-09
2.48267e-09
2.27173e-09
2.08554e-09
1.92645e-09
1.78851e-09
1.66141e-09
1.52374e-09
1.38331e-09
1.26639e-09
1.21581e-09
9.08383e-10
-1.76734e-10
-2.63371e-08
-8.00171e-09
3.1108e-09
5.1937e-09
5.97666e-09
6.16039e-09
6.06355e-09
5.8262e-09
5.50776e-09
5.1518e-09
4.79281e-09
4.44826e-09
4.12048e-09
3.8087e-09
3.51226e-09
3.22952e-09
2.96059e-09
2.70832e-09
2.4751e-09
2.26302e-09
2.07776e-09
1.92238e-09
1.78928e-09
1.6641e-09
1.52979e-09
1.38743e-09
1.26307e-09
1.14811e-09
7.84422e-10
1.56133e-10
-2.68989e-08
-8.78559e-09
2.49893e-09
4.84458e-09
5.76862e-09
6.0315e-09
5.98585e-09
5.78182e-09
5.48353e-09
5.13894e-09
4.78652e-09
4.44624e-09
4.12112e-09
3.81044e-09
3.5135e-09
3.22973e-09
2.95985e-09
2.70618e-09
2.47123e-09
2.25812e-09
2.07315e-09
1.91988e-09
1.78945e-09
1.667e-09
1.53394e-09
1.38926e-09
1.26534e-09
1.15537e-09
8.14992e-10
1.3135e-10
-2.74994e-08
-9.25768e-09
2.15455e-09
4.60894e-09
5.61856e-09
5.93788e-09
5.92981e-09
5.74988e-09
5.46693e-09
5.13077e-09
4.78388e-09
4.44763e-09
4.12543e-09
3.81624e-09
3.51948e-09
3.23509e-09
2.96416e-09
2.7089e-09
2.47199e-09
2.25722e-09
2.07182e-09
1.91966e-09
1.79121e-09
1.66911e-09
1.53669e-09
1.39364e-09
1.27418e-09
1.16995e-09
8.0353e-10
1.18076e-10
-2.78264e-08
-9.47516e-09
2.01984e-09
4.50394e-09
5.54605e-09
5.8916e-09
5.90297e-09
5.73696e-09
5.4617e-09
5.13098e-09
4.78775e-09
4.45432e-09
4.13445e-09
3.8269e-09
3.5308e-09
3.24606e-09
2.97385e-09
2.71666e-09
2.47757e-09
2.2609e-09
2.07438e-09
1.92178e-09
1.79359e-09
1.67199e-09
1.53761e-09
1.39764e-09
1.28055e-09
1.17639e-09
8.07303e-10
1.20077e-10
-2.77841e-08
-9.38656e-09
2.06741e-09
4.527e-09
5.55555e-09
5.89857e-09
5.91018e-09
5.74392e-09
5.47043e-09
5.14152e-09
4.79973e-09
4.46739e-09
4.14873e-09
3.84269e-09
3.54766e-09
3.26272e-09
2.98892e-09
2.72939e-09
2.48801e-09
2.26946e-09
2.08113e-09
1.92659e-09
1.79585e-09
1.67276e-09
1.54046e-09
1.39889e-09
1.28148e-09
1.17627e-09
8.12015e-10
1.24473e-10
-2.73296e-08
-9.01735e-09
2.33904e-09
4.67568e-09
5.63954e-09
5.95337e-09
5.94871e-09
5.77289e-09
5.49346e-09
5.16223e-09
4.81943e-09
4.48673e-09
4.16848e-09
3.86362e-09
3.56979e-09
3.28472e-09
3.00912e-09
2.74707e-09
2.50322e-09
2.2823e-09
2.09153e-09
1.93396e-09
1.79976e-09
1.67341e-09
1.53898e-09
1.39763e-09
1.27955e-09
1.17466e-09
8.14961e-10
1.31748e-10
-2.67807e-08
-8.21203e-09
2.84619e-09
4.92064e-09
5.78091e-09
6.04702e-09
6.0164e-09
5.81929e-09
5.52858e-09
5.19165e-09
4.84605e-09
4.51171e-09
4.193e-09
3.88887e-09
3.5964e-09
3.31138e-09
3.0338e-09
2.76912e-09
2.52282e-09
2.29921e-09
2.10537e-09
1.94369e-09
1.80409e-09
1.6745e-09
1.53453e-09
1.39193e-09
1.269e-09
1.16426e-09
8.82015e-10
1.46123e-10
-2.65739e-08
-7.26712e-09
3.4958e-09
5.23945e-09
5.97023e-09
6.17232e-09
6.10389e-09
5.88206e-09
5.57045e-09
5.2263e-09
4.87858e-09
4.54111e-09
4.22057e-09
3.91707e-09
3.62652e-09
3.34184e-09
3.06216e-09
2.79441e-09
2.54599e-09
2.3205e-09
2.12225e-09
1.95337e-09
1.81064e-09
1.67513e-09
1.53163e-09
1.384e-09
1.25332e-09
1.17429e-09
9.99288e-10
1.08338e-10
-2.7098e-08
-6.64626e-09
4.14534e-09
5.60751e-09
6.19986e-09
6.32115e-09
6.20059e-09
5.94801e-09
5.61753e-09
5.26192e-09
4.91309e-09
4.57368e-09
4.25016e-09
3.94738e-09
3.65882e-09
3.37456e-09
3.0935e-09
2.82261e-09
2.57272e-09
2.3457e-09
2.14019e-09
1.96403e-09
1.81656e-09
1.67512e-09
1.53274e-09
1.38626e-09
1.25374e-09
1.18063e-09
1.0906e-09
-1.36492e-11
-2.45354e-08
-5.60106e-09
4.36038e-09
5.92399e-09
6.45664e-09
6.47849e-09
6.28624e-09
5.99921e-09
5.65817e-09
5.30271e-09
4.94718e-09
4.60586e-09
4.28184e-09
3.97948e-09
3.69138e-09
3.40744e-09
3.12667e-09
2.85451e-09
2.6029e-09
2.37226e-09
2.16433e-09
1.97807e-09
1.81611e-09
1.6656e-09
1.52645e-09
1.4026e-09
1.27653e-09
1.1312e-09
1.03754e-09
2.34324e-11
-2.33042e-08
-4.68903e-09
4.81421e-09
6.16634e-09
6.65719e-09
6.6133e-09
6.36621e-09
6.03149e-09
5.69248e-09
5.33009e-09
4.97301e-09
4.6321e-09
4.31308e-09
4.01189e-09
3.72339e-09
3.43987e-09
3.16048e-09
2.88915e-09
2.63298e-09
2.39695e-09
2.18165e-09
1.99836e-09
1.81533e-09
1.65313e-09
1.50978e-09
1.39168e-09
1.19313e-09
1.02343e-09
1.07512e-09
1.79926e-10
-2.38648e-08
-4.4767e-09
5.35355e-09
6.54625e-09
6.83393e-09
6.68273e-09
6.40315e-09
6.05646e-09
5.69129e-09
5.32866e-09
4.98324e-09
4.65376e-09
4.34307e-09
4.0434e-09
3.75447e-09
3.47156e-09
3.19438e-09
2.92554e-09
2.66601e-09
2.4178e-09
2.19155e-09
1.99057e-09
1.82289e-09
1.66299e-09
1.52081e-09
1.3183e-09
1.19702e-09
1.04502e-09
1.11844e-09
2.04495e-10
-2.45954e-08
-4.44176e-09
5.81203e-09
6.80484e-09
6.92944e-09
6.70868e-09
6.37803e-09
6.04001e-09
5.67997e-09
5.31529e-09
4.98614e-09
4.67585e-09
4.37029e-09
4.07167e-09
3.78394e-09
3.50161e-09
3.22716e-09
2.96086e-09
2.70289e-09
2.44791e-09
2.20372e-09
1.99453e-09
1.82979e-09
1.66156e-09
1.48344e-09
1.3655e-09
1.19147e-09
1.04324e-09
1.14632e-09
2.04487e-10
-2.49637e-08
-4.29345e-09
6.11684e-09
6.88272e-09
6.86978e-09
6.65665e-09
6.3006e-09
5.9707e-09
5.63213e-09
5.31671e-09
5.00361e-09
4.69209e-09
4.38899e-09
4.09424e-09
3.80963e-09
3.52936e-09
3.25613e-09
2.99009e-09
2.73445e-09
2.48701e-09
2.25235e-09
2.02188e-09
1.83026e-09
1.64173e-09
1.49644e-09
1.36573e-09
1.17869e-09
1.06859e-09
1.16918e-09
1.90683e-10
-2.44626e-08
-3.83976e-09
6.06391e-09
6.61243e-09
6.60806e-09
6.4927e-09
6.16932e-09
5.86563e-09
5.5831e-09
5.32005e-09
5.01792e-09
4.71265e-09
4.40828e-09
4.11491e-09
3.83212e-09
3.5537e-09
3.28251e-09
3.01932e-09
2.77043e-09
2.53151e-09
2.30011e-09
2.06898e-09
1.82738e-09
1.64372e-09
1.54543e-09
1.37967e-09
1.076e-09
1.08964e-09
1.22428e-09
2.07444e-10
-2.40513e-08
-3.86614e-09
5.19149e-09
5.88191e-09
6.21829e-09
6.1388e-09
6.028e-09
5.81358e-09
5.54094e-09
5.30308e-09
5.02755e-09
4.74022e-09
4.43146e-09
4.13362e-09
3.84981e-09
3.57161e-09
3.30437e-09
3.04876e-09
2.81296e-09
2.57748e-09
2.3356e-09
2.09205e-09
1.85414e-09
1.67157e-09
1.44268e-09
1.3721e-09
1.34338e-09
1.3578e-09
1.0677e-09
3.50063e-10
-2.48331e-08
-6.95513e-09
2.59676e-09
4.83896e-09
5.74561e-09
5.97904e-09
5.92303e-09
5.75657e-09
5.50027e-09
5.26118e-09
5.04547e-09
4.78102e-09
4.45483e-09
4.14702e-09
3.86061e-09
3.57815e-09
3.31736e-09
3.0743e-09
2.85941e-09
2.63291e-09
2.35402e-09
2.08206e-09
1.86955e-09
1.63229e-09
1.38703e-09
1.60502e-09
1.64047e-09
1.52639e-09
1.67965e-09
8.63691e-10
-5.33777e-08
-2.18254e-08
5.48522e-10
4.65748e-09
5.60221e-09
5.93844e-09
5.921e-09
5.75305e-09
5.42491e-09
5.15643e-09
5.10564e-09
4.87748e-09
4.45458e-09
4.15109e-09
3.86446e-09
3.56931e-09
3.31665e-09
3.08468e-09
2.89573e-09
2.77492e-09
2.31553e-09
2.01454e-09
1.88848e-09
1.7138e-09
1.14997e-09
1.8928e-09
2.14665e-09
2.40884e-09
3.42598e-09
3.13269e-09
-3.76371e-08
-1.77884e-08
-4.03827e-09
9.74353e-10
3.34504e-09
4.36829e-09
4.78187e-09
4.85109e-09
4.70687e-09
4.62499e-09
4.61359e-09
4.37152e-09
4.07925e-09
3.8045e-09
3.54289e-09
3.30792e-09
3.08232e-09
2.88308e-09
2.68953e-09
2.52333e-09
2.23571e-09
1.85977e-09
1.73809e-09
1.63175e-09
1.51599e-09
1.39595e-09
1.31297e-09
1.30018e-09
1.71263e-09
8.07817e-10
-6.13482e-09
-8.95786e-09
-4.01669e-09
1.18289e-09
3.48769e-09
4.45217e-09
4.8189e-09
4.87617e-09
4.78941e-09
4.69481e-09
4.55246e-09
4.33755e-09
4.08379e-09
3.81331e-09
3.551e-09
3.30997e-09
3.08747e-09
2.8852e-09
2.67574e-09
2.45119e-09
2.21775e-09
1.94323e-09
1.74584e-09
1.60811e-09
1.47935e-09
1.33405e-09
1.14145e-09
8.034e-10
4.17307e-10
1.04996e-09
1.18129e-09
1.04741e-10
9.15234e-10
2.88337e-09
4.13684e-09
4.75307e-09
4.97964e-09
4.98924e-09
4.91041e-09
4.74545e-09
4.54091e-09
4.33313e-09
4.07108e-09
3.81203e-09
3.55711e-09
3.31373e-09
3.08533e-09
2.86198e-09
2.65011e-09
2.42165e-09
2.18352e-09
1.98406e-09
1.77132e-09
1.58686e-09
1.42791e-09
1.24327e-09
9.92406e-10
6.41639e-10
3.03985e-10
5.76817e-10
1.87426e-08
8.96247e-09
4.46677e-09
4.73491e-09
5.06707e-09
5.24132e-09
5.26106e-09
5.17392e-09
5.03473e-09
4.80169e-09
4.57422e-09
4.33423e-09
4.06865e-09
3.81146e-09
3.55732e-09
3.31096e-09
3.07531e-09
2.84207e-09
2.61835e-09
2.40141e-09
2.16613e-09
1.98302e-09
1.78679e-09
1.58534e-09
1.40665e-09
1.20964e-09
9.70941e-10
7.01488e-10
4.05208e-10
5.07243e-10
2.05599e-08
1.2298e-08
6.84803e-09
6.22662e-09
5.99963e-09
5.79477e-09
5.61618e-09
5.3977e-09
5.14887e-09
4.88088e-09
4.61955e-09
4.34792e-09
4.07851e-09
3.81311e-09
3.5539e-09
3.30296e-09
3.06118e-09
2.82481e-09
2.59548e-09
2.37479e-09
2.16175e-09
1.96017e-09
1.78364e-09
1.60347e-09
1.41943e-09
1.21264e-09
1.01387e-09
6.45392e-10
4.46011e-10
5.50072e-10
1.52113e-08
1.02967e-08
7.65919e-09
7.16051e-09
6.54242e-09
6.2937e-09
5.95658e-09
5.60602e-09
5.27545e-09
4.96771e-09
4.66135e-09
4.37272e-09
4.09081e-09
3.81581e-09
3.54983e-09
3.29334e-09
3.04593e-09
2.80604e-09
2.57431e-09
2.35092e-09
2.14464e-09
1.95601e-09
1.76876e-09
1.61193e-09
1.46201e-09
1.15451e-09
9.0413e-10
8.05104e-10
4.91947e-10
4.34958e-10
1.09387e-08
7.44815e-09
6.98544e-09
7.40544e-09
7.0436e-09
6.50503e-09
6.15672e-09
5.80458e-09
5.4079e-09
5.03213e-09
4.70653e-09
4.39933e-09
4.10133e-09
3.81706e-09
3.54499e-09
3.28309e-09
3.02964e-09
2.7848e-09
2.55237e-09
2.33218e-09
2.12144e-09
1.94113e-09
1.7867e-09
1.62526e-09
1.35067e-09
1.18041e-09
1.0466e-09
8.25166e-10
4.44265e-10
3.8794e-10
7.1872e-09
5.06401e-09
6.15878e-09
7.18667e-09
7.10578e-09
6.74405e-09
6.29568e-09
5.87826e-09
5.50231e-09
5.11084e-09
4.74742e-09
4.41706e-09
4.10944e-09
3.81742e-09
3.53879e-09
3.2714e-09
3.01287e-09
2.76501e-09
2.52829e-09
2.30922e-09
2.11482e-09
1.93953e-09
1.77819e-09
1.57536e-09
1.43333e-09
1.23202e-09
1.03966e-09
8.21808e-10
4.5607e-10
3.91854e-10
5.52285e-09
4.02319e-09
5.51493e-09
6.81401e-09
6.97257e-09
6.71248e-09
6.37099e-09
5.96451e-09
5.54626e-09
5.15513e-09
4.78091e-09
4.42904e-09
4.11143e-09
3.81564e-09
3.53216e-09
3.2597e-09
2.99724e-09
2.74465e-09
2.50415e-09
2.29248e-09
2.10679e-09
1.92906e-09
1.7814e-09
1.63596e-09
1.44135e-09
1.24139e-09
1.05558e-09
8.22158e-10
4.86242e-10
4.31001e-10
7.15804e-09
3.93442e-09
4.79719e-09
6.35258e-09
6.75846e-09
6.64884e-09
6.34931e-09
5.97645e-09
5.57254e-09
5.17372e-09
4.79436e-09
4.43811e-09
4.11172e-09
3.81028e-09
3.52518e-09
3.24911e-09
2.98219e-09
2.72537e-09
2.48881e-09
2.27789e-09
2.09227e-09
1.9276e-09
1.78691e-09
1.64419e-09
1.48454e-09
1.29872e-09
1.06401e-09
7.82913e-10
4.6668e-10
4.86283e-10
5.79154e-09
3.03309e-09
4.17754e-09
5.97703e-09
6.52849e-09
6.50573e-09
6.27928e-09
5.95247e-09
5.56925e-09
5.17448e-09
4.79707e-09
4.44458e-09
4.11238e-09
3.80387e-09
3.51617e-09
3.23784e-09
2.96708e-09
2.71084e-09
2.47936e-09
2.26743e-09
2.07922e-09
1.92079e-09
1.78776e-09
1.65254e-09
1.49657e-09
1.32442e-09
1.10492e-09
7.51624e-10
3.59571e-10
4.97776e-10
2.77087e-09
1.42837e-09
3.58838e-09
5.61162e-09
6.28242e-09
6.35599e-09
6.19354e-09
5.90924e-09
5.54937e-09
5.16354e-09
4.79444e-09
4.44332e-09
4.11196e-09
3.8006e-09
3.50779e-09
3.22703e-09
2.95588e-09
2.7018e-09
2.4689e-09
2.25808e-09
2.06961e-09
1.91374e-09
1.78754e-09
1.65958e-09
1.508e-09
1.33704e-09
1.12202e-09
7.93633e-10
3.15553e-10
3.89094e-10
-7.62715e-10
-2.72511e-10
3.03724e-09
5.25216e-09
6.05577e-09
6.21193e-09
6.10573e-09
5.85918e-09
5.52202e-09
5.1537e-09
4.7873e-09
4.43922e-09
4.11034e-09
3.7985e-09
3.50313e-09
3.2203e-09
2.94922e-09
2.69474e-09
2.46048e-09
2.24804e-09
2.06469e-09
1.91295e-09
1.78711e-09
1.66313e-09
1.51336e-09
1.33789e-09
1.09397e-09
7.45406e-10
4.72734e-10
3.73059e-10
-2.12388e-09
-1.2698e-09
2.5148e-09
4.9357e-09
5.85698e-09
6.08431e-09
6.02848e-09
5.81361e-09
5.50044e-09
5.14273e-09
4.7802e-09
4.43705e-09
4.1102e-09
3.79931e-09
3.50285e-09
3.21873e-09
2.94722e-09
2.69168e-09
2.45589e-09
2.24254e-09
2.05941e-09
1.91557e-09
1.78886e-09
1.66566e-09
1.51574e-09
1.34039e-09
1.09759e-09
7.63278e-10
5.06656e-10
3.66555e-10
-2.38859e-09
-1.65059e-09
2.16899e-09
4.7052e-09
5.70906e-09
5.99148e-09
5.97389e-09
5.78357e-09
5.48467e-09
5.1348e-09
4.777e-09
4.43828e-09
4.1146e-09
3.80473e-09
3.50794e-09
3.22307e-09
2.95082e-09
2.69415e-09
2.45664e-09
2.24094e-09
2.05764e-09
1.91624e-09
1.79203e-09
1.66904e-09
1.51787e-09
1.34518e-09
1.10754e-09
7.77006e-10
5.1573e-10
3.61271e-10
-2.53609e-09
-1.80032e-09
2.02669e-09
4.59785e-09
5.6365e-09
5.94638e-09
5.94827e-09
5.77079e-09
5.48005e-09
5.13528e-09
4.78075e-09
4.44487e-09
4.12375e-09
3.81541e-09
3.51919e-09
3.23392e-09
2.96043e-09
2.70191e-09
2.46219e-09
2.24431e-09
2.06019e-09
1.91876e-09
1.79469e-09
1.67114e-09
1.51999e-09
1.34901e-09
1.11399e-09
7.84147e-10
5.20521e-10
3.60522e-10
-2.48322e-09
-1.77915e-09
2.05979e-09
4.61834e-09
5.6468e-09
5.95402e-09
5.95527e-09
5.77809e-09
5.48874e-09
5.14589e-09
4.79343e-09
4.45832e-09
4.13792e-09
3.83151e-09
3.53675e-09
3.25135e-09
2.97597e-09
2.71464e-09
2.47252e-09
2.25353e-09
2.06724e-09
1.92319e-09
1.79648e-09
1.6721e-09
1.52119e-09
1.35011e-09
1.11533e-09
7.85772e-10
5.22617e-10
3.62499e-10
-2.23947e-09
-1.41589e-09
2.30717e-09
4.75078e-09
5.72763e-09
6.01056e-09
5.99486e-09
5.80674e-09
5.51065e-09
5.1665e-09
4.81373e-09
4.47777e-09
4.15812e-09
3.85326e-09
3.56027e-09
3.27491e-09
2.99723e-09
2.73288e-09
2.48787e-09
2.26667e-09
2.07838e-09
1.92909e-09
1.79876e-09
1.67196e-09
1.5204e-09
1.34798e-09
1.11402e-09
7.81353e-10
5.2167e-10
3.69157e-10
-1.41844e-11
-3.18712e-10
2.6356e-09
4.95385e-09
5.86081e-09
6.10567e-09
6.0621e-09
5.85673e-09
5.54532e-09
5.19257e-09
4.84169e-09
4.50339e-09
4.18366e-09
3.87975e-09
3.5887e-09
3.30366e-09
3.02333e-09
2.75599e-09
2.5083e-09
2.28465e-09
2.0919e-09
1.93245e-09
1.80456e-09
1.67305e-09
1.51626e-09
1.34252e-09
1.11746e-09
7.72081e-10
5.03025e-10
3.94933e-10
3.17855e-09
1.06987e-09
2.99419e-09
5.22354e-09
6.04212e-09
6.22784e-09
6.14738e-09
5.91631e-09
5.59121e-09
5.22969e-09
4.87273e-09
4.53358e-09
4.21163e-09
3.90903e-09
3.62122e-09
3.33681e-09
3.05345e-09
2.78191e-09
2.53232e-09
2.30546e-09
2.10573e-09
1.94389e-09
1.81104e-09
1.67329e-09
1.51212e-09
1.33559e-09
1.11515e-09
7.60682e-10
4.75268e-10
4.33925e-10
4.15238e-09
2.0342e-09
3.59175e-09
5.52739e-09
6.24669e-09
6.37082e-09
6.2393e-09
5.9806e-09
5.63806e-09
5.27044e-09
4.90929e-09
4.5634e-09
4.24086e-09
3.94134e-09
3.65632e-09
3.37184e-09
3.08778e-09
2.8109e-09
2.55704e-09
2.3269e-09
2.12665e-09
1.95707e-09
1.8162e-09
1.67215e-09
1.51141e-09
1.332e-09
1.08607e-09
7.59594e-10
4.59959e-10
4.48674e-10
5.67937e-09
3.05496e-09
4.1476e-09
5.90185e-09
6.4572e-09
6.501e-09
6.32501e-09
6.03162e-09
5.6772e-09
5.31132e-09
4.94674e-09
4.59236e-09
4.27343e-09
3.9775e-09
3.68951e-09
3.40505e-09
3.12311e-09
2.84728e-09
2.5824e-09
2.35263e-09
2.15409e-09
1.97098e-09
1.81482e-09
1.6609e-09
1.50179e-09
1.29642e-09
1.07348e-09
8.06682e-10
4.5013e-10
4.06681e-10
6.90341e-09
3.93496e-09
4.70724e-09
6.2606e-09
6.68515e-09
6.62473e-09
6.39703e-09
6.05668e-09
5.70527e-09
5.33839e-09
4.97122e-09
4.62385e-09
4.3076e-09
4.00926e-09
3.72153e-09
3.4381e-09
3.15672e-09
2.88229e-09
2.61814e-09
2.38046e-09
2.17341e-09
1.99012e-09
1.80404e-09
1.64374e-09
1.4801e-09
1.28675e-09
1.07873e-09
8.10162e-10
4.37781e-10
3.78421e-10
7.16217e-09
4.46631e-09
5.26646e-09
6.60304e-09
6.86522e-09
6.7295e-09
6.43668e-09
6.07424e-09
5.70496e-09
5.3332e-09
4.9799e-09
4.65132e-09
4.33677e-09
4.0394e-09
3.75304e-09
3.47098e-09
3.19061e-09
2.91676e-09
2.65594e-09
2.4095e-09
2.1812e-09
1.9882e-09
1.81114e-09
1.64757e-09
1.49226e-09
1.29846e-09
1.06395e-09
8.05261e-10
4.24736e-10
3.71223e-10
7.14476e-09
4.97424e-09
5.80027e-09
6.86229e-09
6.97278e-09
6.73719e-09
6.41502e-09
6.03893e-09
5.6894e-09
5.33294e-09
4.99301e-09
4.67059e-09
4.36134e-09
4.06745e-09
3.78242e-09
3.50133e-09
3.22335e-09
2.95066e-09
2.68902e-09
2.44044e-09
2.20863e-09
2.00162e-09
1.81291e-09
1.64496e-09
1.48456e-09
1.30208e-09
1.08008e-09
7.95058e-10
4.18078e-10
3.71086e-10
7.29342e-09
5.522e-09
6.19856e-09
6.93281e-09
6.92283e-09
6.67172e-09
6.30971e-09
5.97531e-09
5.65241e-09
5.33971e-09
5.00511e-09
4.68579e-09
4.38377e-09
4.09266e-09
3.80897e-09
3.52916e-09
3.25388e-09
2.98383e-09
2.72276e-09
2.47373e-09
2.25299e-09
2.0338e-09
1.81879e-09
1.63207e-09
1.46294e-09
1.31168e-09
1.08621e-09
7.94517e-10
4.24019e-10
3.79483e-10
9.1837e-09
6.42912e-09
6.16453e-09
6.65075e-09
6.65148e-09
6.47202e-09
6.15364e-09
5.89773e-09
5.6336e-09
5.32058e-09
5.01702e-09
4.70433e-09
4.40133e-09
4.11439e-09
3.8326e-09
3.55407e-09
3.28172e-09
3.01304e-09
2.7561e-09
2.51923e-09
2.28569e-09
2.0715e-09
1.85893e-09
1.63164e-09
1.48014e-09
1.3324e-09
1.00591e-09
7.91885e-10
4.9877e-10
4.04397e-10
1.1313e-08
6.9561e-09
5.30541e-09
5.89976e-09
6.18678e-09
6.18692e-09
6.01209e-09
5.8233e-09
5.60219e-09
5.31035e-09
5.00993e-09
4.72816e-09
4.42297e-09
4.13473e-09
3.85108e-09
3.57267e-09
3.30531e-09
3.04273e-09
2.79619e-09
2.55371e-09
2.30849e-09
2.11069e-09
1.87688e-09
1.62977e-09
1.43588e-09
1.41665e-09
1.19983e-09
9.18797e-10
3.95333e-10
4.67388e-10
1.40514e-08
5.3341e-09
2.75903e-09
4.79905e-09
5.76109e-09
5.98477e-09
5.90848e-09
5.75765e-09
5.54547e-09
5.30388e-09
5.02089e-09
4.74743e-09
4.4505e-09
4.15028e-09
3.86121e-09
3.58115e-09
3.32027e-09
3.07123e-09
2.83638e-09
2.58068e-09
2.34633e-09
2.11525e-09
1.86899e-09
1.62101e-09
1.45663e-09
1.51264e-09
1.42119e-09
1.10841e-09
6.86162e-10
7.84142e-10
2.4008e-09
-5.84883e-09
6.73933e-11
4.40151e-09
5.64056e-09
5.93153e-09
5.89088e-09
5.73153e-09
5.48932e-09
5.2331e-09
5.07643e-09
4.79282e-09
4.47322e-09
4.15439e-09
3.85963e-09
3.58042e-09
3.32029e-09
3.09082e-09
2.86914e-09
2.65932e-09
2.35184e-09
2.06057e-09
1.87694e-09
1.64236e-09
1.42749e-09
1.66074e-09
1.83274e-09
1.75721e-09
1.1789e-09
1.98117e-09
-3.33129e-08
-1.33048e-08
-1.31499e-09
1.92852e-09
3.68244e-09
4.51308e-09
4.83536e-09
4.88792e-09
4.81189e-09
4.68852e-09
4.53811e-09
4.33879e-09
4.07183e-09
3.80485e-09
3.54291e-09
3.30194e-09
3.07973e-09
2.87125e-09
2.66852e-09
2.4515e-09
2.19332e-09
1.95207e-09
1.74385e-09
1.58291e-09
1.43563e-09
1.28186e-09
1.1047e-09
1.00775e-09
1.16506e-09
2.11722e-10
-2.8796e-09
-4.23151e-09
-1.15058e-09
2.10578e-09
3.80423e-09
4.5888e-09
4.88192e-09
4.92377e-09
4.85445e-09
4.73259e-09
4.52903e-09
4.30161e-09
4.08186e-09
3.81074e-09
3.54587e-09
3.30413e-09
3.07997e-09
2.87959e-09
2.64756e-09
2.40279e-09
2.20125e-09
1.9749e-09
1.74914e-09
1.56713e-09
1.41498e-09
1.2271e-09
9.77716e-10
6.39459e-10
2.71581e-10
5.88161e-10
9.19221e-09
6.19676e-09
3.34985e-09
3.61834e-09
4.41327e-09
4.88053e-09
5.04466e-09
5.04067e-09
4.93722e-09
4.76991e-09
4.54719e-09
4.30478e-09
4.07013e-09
3.80857e-09
3.55029e-09
3.3069e-09
3.07575e-09
2.85888e-09
2.62214e-09
2.38695e-09
2.18523e-09
1.97191e-09
1.76182e-09
1.5558e-09
1.37481e-09
1.16044e-09
8.63867e-10
5.07275e-10
3.5094e-10
3.67001e-10
2.38816e-08
1.45635e-08
6.96128e-09
5.47464e-09
5.35972e-09
5.37716e-09
5.32814e-09
5.21968e-09
5.0554e-09
4.83283e-09
4.57942e-09
4.30025e-09
4.05599e-09
3.8162e-09
3.55556e-09
3.30704e-09
3.07431e-09
2.8377e-09
2.57872e-09
2.36397e-09
2.16956e-09
1.97083e-09
1.76662e-09
1.55473e-09
1.36023e-09
1.14678e-09
8.57929e-10
5.61232e-10
3.92333e-10
2.56047e-10
2.27955e-08
1.66139e-08
9.37228e-09
7.01827e-09
6.2994e-09
5.94369e-09
5.68954e-09
5.43784e-09
5.18567e-09
4.90558e-09
4.6019e-09
4.3239e-09
4.06945e-09
3.81437e-09
3.55236e-09
3.30024e-09
3.05857e-09
2.81763e-09
2.56912e-09
2.33243e-09
2.14132e-09
1.96006e-09
1.76366e-09
1.57193e-09
1.38047e-09
1.15334e-09
8.67767e-10
5.61458e-10
4.00332e-10
2.81975e-10
1.81493e-08
1.469e-08
1.01136e-08
7.90274e-09
6.91705e-09
6.48273e-09
6.05674e-09
5.65957e-09
5.31058e-09
4.96874e-09
4.64549e-09
4.35787e-09
4.08052e-09
3.81314e-09
3.54794e-09
3.29096e-09
3.04116e-09
2.79494e-09
2.55125e-09
2.31959e-09
2.11175e-09
1.9364e-09
1.75837e-09
1.59914e-09
1.454e-09
1.15085e-09
7.50829e-10
6.03017e-10
4.81592e-10
2.58345e-10
1.41314e-08
1.21143e-08
9.62209e-09
8.33188e-09
7.43596e-09
6.69047e-09
6.26138e-09
5.85916e-09
5.40993e-09
5.03217e-09
4.70296e-09
4.38733e-09
4.08907e-09
3.80767e-09
3.5426e-09
3.28105e-09
3.02269e-09
2.7665e-09
2.52796e-09
2.30761e-09
2.1045e-09
1.90605e-09
1.75644e-09
1.62247e-09
1.34043e-09
1.14893e-09
9.56484e-10
6.87899e-10
4.13379e-10
2.26378e-10
1.04795e-08
1.02193e-08
9.11953e-09
8.19019e-09
7.50734e-09
6.92849e-09
6.39687e-09
5.92022e-09
5.52354e-09
5.10361e-09
4.73599e-09
4.40566e-09
4.09297e-09
3.80499e-09
3.53529e-09
3.2685e-09
3.00411e-09
2.74322e-09
2.50045e-09
2.28482e-09
2.08914e-09
1.91976e-09
1.75627e-09
1.55714e-09
1.41976e-09
1.20049e-09
9.60735e-10
6.80468e-10
4.32581e-10
2.33158e-10
1.16734e-08
1.04407e-08
8.63965e-09
7.83549e-09
7.37553e-09
6.89489e-09
6.45394e-09
6.00977e-09
5.58178e-09
5.1592e-09
4.76714e-09
4.40419e-09
4.09067e-09
3.80515e-09
3.52732e-09
3.25476e-09
2.98765e-09
2.72334e-09
2.46856e-09
2.25551e-09
2.08065e-09
1.9158e-09
1.76927e-09
1.60223e-09
1.41483e-09
1.20612e-09
9.90802e-10
6.85493e-10
4.52941e-10
2.47545e-10
1.44649e-08
1.10668e-08
8.06031e-09
7.41851e-09
7.15299e-09
6.76881e-09
6.41921e-09
6.05384e-09
5.61669e-09
5.18605e-09
4.78552e-09
4.40806e-09
4.08444e-09
3.79974e-09
3.51889e-09
3.24112e-09
2.97233e-09
2.69797e-09
2.44239e-09
2.2377e-09
2.06584e-09
1.9163e-09
1.79132e-09
1.63188e-09
1.41522e-09
1.21873e-09
1.0167e-09
6.81783e-10
4.56178e-10
2.72213e-10
1.21539e-08
1.01382e-08
7.60354e-09
7.03118e-09
6.88058e-09
6.62754e-09
6.38891e-09
6.0395e-09
5.61523e-09
5.18381e-09
4.78951e-09
4.41577e-09
4.08322e-09
3.78481e-09
3.50607e-09
3.22763e-09
2.94917e-09
2.67962e-09
2.4326e-09
2.22802e-09
2.05212e-09
1.90192e-09
1.79e-09
1.66585e-09
1.45953e-09
1.22633e-09
9.9996e-10
6.76443e-10
4.68978e-10
2.7953e-10
1.10188e-08
8.99677e-09
6.85945e-09
6.56475e-09
6.65327e-09
6.52812e-09
6.31836e-09
6.00049e-09
5.59922e-09
5.17524e-09
4.77424e-09
4.41555e-09
4.08909e-09
3.77727e-09
3.48789e-09
3.20883e-09
2.9287e-09
2.6712e-09
2.43422e-09
2.20845e-09
2.0365e-09
1.89745e-09
1.78908e-09
1.67713e-09
1.50032e-09
1.28971e-09
9.71621e-10
6.65785e-10
4.84637e-10
2.50317e-10
9.25791e-09
7.78321e-09
6.17166e-09
6.21699e-09
6.46564e-09
6.38591e-09
6.2367e-09
5.96177e-09
5.57811e-09
5.15618e-09
4.76736e-09
4.41717e-09
4.08435e-09
3.77004e-09
3.47764e-09
3.19477e-09
2.91821e-09
2.65805e-09
2.42489e-09
2.21032e-09
2.02148e-09
1.89503e-09
1.79906e-09
1.6869e-09
1.51012e-09
1.29569e-09
1.00496e-09
6.52198e-10
4.98092e-10
2.55343e-10
8.29524e-09
7.06178e-09
5.7231e-09
5.946e-09
6.27413e-09
6.25475e-09
6.16242e-09
5.92692e-09
5.5536e-09
5.1419e-09
4.7672e-09
4.41632e-09
4.08017e-09
3.76827e-09
3.47283e-09
3.18772e-09
2.91258e-09
2.65261e-09
2.416e-09
2.20903e-09
2.02452e-09
1.89001e-09
1.80727e-09
1.69604e-09
1.51145e-09
1.30135e-09
1.04007e-09
6.48577e-10
4.94534e-10
2.54102e-10
8.46614e-09
6.89856e-09
5.42787e-09
5.73265e-09
6.12731e-09
6.16583e-09
6.11476e-09
5.90009e-09
5.53965e-09
5.13557e-09
4.76174e-09
4.41725e-09
4.08566e-09
3.77256e-09
3.47524e-09
3.189e-09
2.91398e-09
2.65455e-09
2.41867e-09
2.20339e-09
2.02326e-09
1.89324e-09
1.81313e-09
1.7015e-09
1.51308e-09
1.30846e-09
1.05697e-09
6.56877e-10
4.94598e-10
2.5152e-10
8.49709e-09
6.82027e-09
5.29442e-09
5.62916e-09
6.05682e-09
6.1236e-09
6.09235e-09
5.88901e-09
5.53622e-09
5.13742e-09
4.76478e-09
4.42305e-09
4.09552e-09
3.78331e-09
3.48626e-09
3.19953e-09
2.92335e-09
2.66247e-09
2.42446e-09
2.2049e-09
2.02614e-09
1.89697e-09
1.81626e-09
1.7039e-09
1.51504e-09
1.31283e-09
1.06419e-09
6.63414e-10
4.96885e-10
2.50846e-10
8.10061e-09
6.68602e-09
5.3113e-09
5.64457e-09
6.0714e-09
6.1329e-09
6.09784e-09
5.89686e-09
5.54501e-09
5.14665e-09
4.78004e-09
4.4385e-09
4.1083e-09
3.80013e-09
3.50587e-09
3.21926e-09
2.94031e-09
2.67482e-09
2.43339e-09
2.21832e-09
2.03262e-09
1.89935e-09
1.81727e-09
1.70396e-09
1.51562e-09
1.31144e-09
1.06433e-09
6.68109e-10
5.00591e-10
2.51802e-10
7.99835e-09
6.78095e-09
5.46945e-09
5.75021e-09
6.15401e-09
6.19316e-09
6.1364e-09
5.92233e-09
5.56876e-09
5.16801e-09
4.80054e-09
4.45598e-09
4.13028e-09
3.82422e-09
3.53354e-09
3.24749e-09
2.9648e-09
2.69485e-09
2.44799e-09
2.23206e-09
2.04109e-09
1.90658e-09
1.81667e-09
1.70067e-09
1.51487e-09
1.30385e-09
1.05205e-09
6.77988e-10
5.07439e-10
2.52272e-10
9.10066e-09
7.40741e-09
5.77495e-09
5.90206e-09
6.27611e-09
6.3031e-09
6.20542e-09
5.96023e-09
5.60355e-09
5.20518e-09
4.81998e-09
4.48081e-09
4.15974e-09
3.85487e-09
3.56712e-09
3.28263e-09
2.99491e-09
2.7211e-09
2.47443e-09
2.24011e-09
2.05065e-09
1.92e-09
1.81555e-09
1.69421e-09
1.51042e-09
1.2928e-09
1.01999e-09
6.99326e-10
5.19982e-10
2.51071e-10
9.6665e-09
7.96494e-09
6.27987e-09
6.23085e-09
6.41701e-09
6.40824e-09
6.28994e-09
6.01185e-09
5.64281e-09
5.24644e-09
4.86325e-09
4.50405e-09
4.1891e-09
3.88778e-09
3.60679e-09
3.32393e-09
3.02919e-09
2.75283e-09
2.4924e-09
2.25647e-09
2.07688e-09
1.9284e-09
1.81909e-09
1.69082e-09
1.49577e-09
1.25672e-09
1.00973e-09
7.10405e-10
5.10251e-10
2.62248e-10
8.84829e-09
8.14935e-09
6.85381e-09
6.6506e-09
6.67713e-09
6.5164e-09
6.34377e-09
6.07429e-09
5.69074e-09
5.28893e-09
4.90774e-09
4.53669e-09
4.20883e-09
3.92866e-09
3.64993e-09
3.36291e-09
3.07656e-09
2.7789e-09
2.50618e-09
2.28683e-09
2.10206e-09
1.94383e-09
1.82652e-09
1.67418e-09
1.45157e-09
1.24728e-09
1.03054e-09
7.10556e-10
4.73575e-10
2.66457e-10
9.20265e-09
8.47426e-09
7.32371e-09
7.03478e-09
6.93348e-09
6.67973e-09
6.41505e-09
6.11084e-09
5.73078e-09
5.33055e-09
4.94293e-09
4.56443e-09