# Force and moment coefficients
# dragDir     : (1.000000e+00 0.000000e+00 0.000000e+00)
# sideDir     : (0.000000e+00 1.000000e+00 0.000000e+00)
# liftDir     : (0.000000e+00 0.000000e+00 1.000000e+00)
# rollAxis    : (1.000000e+00 0.000000e+00 0.000000e+00)
# pitchAxis   : (0.000000e+00 1.000000e+00 0.000000e+00)
# yawAxis     : (0.000000e+00 0.000000e+00 1.000000e+00)
# magUInf     : 1.480000e-03
# lRef        : 1.000000e+00
# Aref        : 7.850000e-01
# CofR        : (0.000000e+00 0.000000e+00 0.000000e+00)
#
# Time        	Cd            	Cd(f)         	Cd(r)         	Cl            	Cl(f)         	Cl(r)         	CmPitch       	CmRoll        	CmYaw         	Cs            	Cs(f)         	Cs(r)         
5             	5.019797e+00	2.509897e+00	2.509900e+00	1.283286e-02	6.420320e-03	6.412536e-03	3.891880e-06	-1.228729e-06	-1.814243e-06	4.767924e-03	2.382148e-03	2.385776e-03
10            	4.362532e+00	2.181265e+00	2.181267e+00	-5.840673e-05	-2.617058e-05	-3.223615e-05	3.032787e-06	-8.089901e-07	-1.820936e-06	-6.840073e-04	-3.438246e-04	-3.401827e-04
15            	4.134185e+00	2.067092e+00	2.067093e+00	-3.642244e-04	-1.789439e-04	-1.852805e-04	3.168261e-06	-7.131019e-07	-2.283377e-06	-5.195552e-04	-2.620610e-04	-2.574942e-04
20            	3.941479e+00	1.970739e+00	1.970740e+00	-3.596036e-04	-1.764370e-04	-1.831666e-04	3.364773e-06	-6.200589e-07	-2.649780e-06	-3.970367e-04	-2.011681e-04	-1.958686e-04
25            	3.767153e+00	1.883576e+00	1.883577e+00	-2.140838e-04	-1.034576e-04	-1.106262e-04	3.584333e-06	-5.593568e-07	-2.952967e-06	-3.369329e-04	-1.714194e-04	-1.655135e-04
30            	3.607536e+00	1.803767e+00	1.803768e+00	-1.315509e-04	-6.205534e-05	-6.949557e-05	3.720117e-06	-5.065554e-07	-3.190877e-06	-2.617689e-04	-1.340753e-04	-1.276936e-04
35            	3.461137e+00	1.730568e+00	1.730569e+00	-1.264402e-04	-5.939658e-05	-6.704366e-05	3.823541e-06	-4.440103e-07	-3.339994e-06	-2.924576e-04	-1.495688e-04	-1.428888e-04
40            	3.326224e+00	1.663111e+00	1.663112e+00	-5.358170e-05	-2.293596e-05	-3.064574e-05	3.854888e-06	-3.985506e-07	-3.413071e-06	-2.584484e-04	-1.326373e-04	-1.258111e-04
45            	3.201934e+00	1.600967e+00	1.600967e+00	-1.463681e-06	3.089078e-06	-4.552759e-06	3.820919e-06	-3.530294e-07	-3.451774e-06	-1.985508e-04	-1.027272e-04	-9.582361e-05
50            	3.087464e+00	1.543732e+00	1.543733e+00	-1.021831e-04	-4.736022e-05	-5.482289e-05	3.731334e-06	-3.162264e-07	-3.455189e-06	-1.729859e-04	-8.994814e-05	-8.303777e-05
55            	2.982024e+00	1.491012e+00	1.491012e+00	-1.233546e-04	-5.802308e-05	-6.533157e-05	3.654246e-06	-2.875867e-07	-3.419552e-06	-2.133049e-04	-1.100720e-04	-1.032329e-04
60            	2.884790e+00	1.442395e+00	1.442395e+00	-1.083878e-04	-5.059652e-05	-5.779123e-05	3.597354e-06	-2.422644e-07	-3.423298e-06	-2.035380e-04	-1.051923e-04	-9.834572e-05
65            	2.794968e+00	1.397484e+00	1.397484e+00	-8.845318e-05	-4.074557e-05	-4.770761e-05	3.481019e-06	-2.031764e-07	-3.422013e-06	-1.714499e-04	-8.914698e-05	-8.230295e-05
70            	2.712016e+00	1.356008e+00	1.356008e+00	-8.176380e-05	-3.751577e-05	-4.424803e-05	3.366129e-06	-1.588897e-07	-3.348014e-06	-1.745943e-04	-9.064515e-05	-8.394912e-05
75            	2.635246e+00	1.317623e+00	1.317623e+00	-5.333327e-05	-2.339908e-05	-2.993419e-05	3.267556e-06	-1.277769e-07	-3.282962e-06	-1.604866e-04	-8.352627e-05	-7.696034e-05
80            	2.564098e+00	1.282049e+00	1.282049e+00	-3.065353e-05	-1.220924e-05	-1.844429e-05	3.117528e-06	-8.674685e-08	-3.229522e-06	-1.174803e-04	-6.196965e-05	-5.551061e-05
85            	2.498015e+00	1.249007e+00	1.249008e+00	1.396642e-05	9.982640e-06	3.983785e-06	2.999427e-06	-4.473347e-08	-3.173380e-06	-5.708541e-05	-3.171609e-05	-2.536933e-05
90            	2.436741e+00	1.218370e+00	1.218370e+00	-8.495661e-06	-1.305802e-06	-7.189859e-06	2.942029e-06	-2.837020e-08	-3.094392e-06	-4.523302e-05	-2.571090e-05	-1.952212e-05
95            	2.379930e+00	1.189965e+00	1.189965e+00	2.287380e-05	1.432756e-05	8.546233e-06	2.890665e-06	1.112058e-08	-3.056966e-06	-6.083745e-05	-3.347569e-05	-2.736176e-05
100           	2.327175e+00	1.163587e+00	1.163587e+00	8.865527e-05	4.712029e-05	4.153499e-05	2.792650e-06	4.029372e-08	-2.988540e-06	-4.508108e-05	-2.552908e-05	-1.955200e-05
105           	2.277519e+00	1.138760e+00	1.138760e+00	5.886216e-05	3.217085e-05	2.669131e-05	2.739771e-06	7.303357e-08	-2.934025e-06	-6.516865e-05	-3.551835e-05	-2.965030e-05
110           	2.231311e+00	1.115656e+00	1.115655e+00	6.405540e-05	3.470632e-05	2.934908e-05	2.678619e-06	1.017451e-07	-2.897312e-06	-2.000143e-05	-1.289803e-05	-7.103401e-06
115           	2.188188e+00	1.094094e+00	1.094094e+00	3.791065e-05	2.156791e-05	1.634274e-05	2.612585e-06	1.451792e-07	-2.868337e-06	-4.586958e-06	-5.161816e-06	5.748577e-07
120           	2.147919e+00	1.073959e+00	1.073959e+00	5.909055e-05	3.210016e-05	2.699039e-05	2.554888e-06	1.902845e-07	-2.854957e-06	-4.711353e-05	-2.641172e-05	-2.070181e-05
125           	2.110083e+00	1.055042e+00	1.055041e+00	1.051847e-04	5.512446e-05	5.006024e-05	2.532111e-06	2.126126e-07	-2.799287e-06	-5.440688e-05	-3.000273e-05	-2.440415e-05
130           	2.074778e+00	1.037389e+00	1.037389e+00	3.544502e-05	2.016676e-05	1.527826e-05	2.444246e-06	2.519442e-07	-2.838542e-06	-2.032270e-05	-1.299989e-05	-7.322809e-06
135           	2.041569e+00	1.020785e+00	1.020784e+00	1.280750e-05	8.763105e-06	4.044397e-06	2.359354e-06	2.870869e-07	-2.819069e-06	-3.752421e-05	-2.158117e-05	-1.594304e-05
140           	2.010412e+00	1.005206e+00	1.005206e+00	2.262378e-05	1.365693e-05	8.966845e-06	2.345043e-06	3.188242e-07	-2.809053e-06	-5.697644e-05	-3.129727e-05	-2.567917e-05
145           	1.981108e+00	9.905544e-01	9.905537e-01	3.095503e-05	1.776964e-05	1.318539e-05	2.292125e-06	3.859071e-07	-2.862325e-06	-3.917148e-05	-2.244807e-05	-1.672342e-05
150           	1.953419e+00	9.767098e-01	9.767090e-01	8.638637e-05	4.546496e-05	4.092141e-05	2.271776e-06	4.215939e-07	-2.902574e-06	8.984523e-06	1.589688e-06	7.394835e-06
155           	1.927284e+00	9.636427e-01	9.636418e-01	1.138408e-04	5.916475e-05	5.467603e-05	2.244360e-06	4.718768e-07	-2.933084e-06	-1.452930e-05	-1.019774e-05	-4.331568e-06
160           	1.902776e+00	9.513887e-01	9.513877e-01	9.362470e-05	4.899906e-05	4.462564e-05	2.186709e-06	4.935348e-07	-2.971569e-06	-2.622765e-05	-1.608539e-05	-1.014225e-05
165           	1.879638e+00	9.398193e-01	9.398183e-01	9.832957e-05	5.131922e-05	4.701034e-05	2.154440e-06	5.386435e-07	-3.020832e-06	-3.869314e-05	-2.236740e-05	-1.632574e-05
170           	1.857767e+00	9.288843e-01	9.288832e-01	7.905104e-05	4.162413e-05	3.742691e-05	2.098608e-06	5.842000e-07	-3.056162e-06	-3.780602e-05	-2.195917e-05	-1.584685e-05
175           	1.837009e+00	9.185053e-01	9.185040e-01	3.762632e-05	2.084591e-05	1.678041e-05	2.032747e-06	6.452707e-07	-3.111312e-06	-5.684592e-05	-3.153427e-05	-2.531165e-05
180           	1.817354e+00	9.086779e-01	9.086765e-01	5.503466e-05	2.949259e-05	2.554207e-05	1.975261e-06	6.829219e-07	-3.174474e-06	-4.123524e-05	-2.379210e-05	-1.744315e-05
185           	1.798856e+00	8.994289e-01	8.994275e-01	9.445673e-05	4.914840e-05	4.530833e-05	1.920034e-06	6.944360e-07	-3.219261e-06	-6.157417e-05	-3.400635e-05	-2.756783e-05
190           	1.781211e+00	8.906064e-01	8.906049e-01	6.596031e-05	3.478940e-05	3.117090e-05	1.809249e-06	7.335181e-07	-3.259036e-06	-4.968677e-05	-2.810242e-05	-2.158435e-05
195           	1.764446e+00	8.822239e-01	8.822224e-01	8.569929e-05	4.454088e-05	4.115842e-05	1.691230e-06	7.641614e-07	-3.287769e-06	-3.032632e-05	-1.845093e-05	-1.187539e-05
200           	1.748548e+00	8.742749e-01	8.742733e-01	5.697030e-05	3.003500e-05	2.693529e-05	1.549853e-06	8.037828e-07	-3.298888e-06	-5.620331e-05	-3.140054e-05	-2.480277e-05
205           	1.733418e+00	8.667097e-01	8.667081e-01	6.060252e-05	3.168837e-05	2.891415e-05	1.387111e-06	8.271080e-07	-3.306759e-06	-7.584713e-05	-4.123033e-05	-3.461681e-05
210           	1.719064e+00	8.595330e-01	8.595313e-01	7.143081e-05	3.688192e-05	3.454889e-05	1.166518e-06	8.559115e-07	-3.289853e-06	-7.806167e-05	-4.232069e-05	-3.574098e-05
215           	1.705441e+00	8.527212e-01	8.527194e-01	9.735445e-05	4.966153e-05	4.769292e-05	9.843029e-07	8.880057e-07	-3.284487e-06	-8.577695e-05	-4.617296e-05	-3.960399e-05
220           	1.692463e+00	8.462323e-01	8.462305e-01	8.019424e-05	4.082985e-05	3.936440e-05	7.327245e-07	9.231541e-07	-3.248360e-06	-8.630400e-05	-4.640036e-05	-3.990364e-05
225           	1.680081e+00	8.400413e-01	8.400394e-01	8.043418e-05	4.064992e-05	3.978426e-05	4.328277e-07	9.508719e-07	-3.170952e-06	-9.196289e-05	-4.915240e-05	-4.281049e-05
230           	1.668253e+00	8.341276e-01	8.341257e-01	1.029841e-04	5.159195e-05	5.139213e-05	9.990741e-08	9.629431e-07	-3.074616e-06	-1.150168e-04	-6.058301e-05	-5.443377e-05
235           	1.656932e+00	8.284671e-01	8.284651e-01	1.457583e-04	7.270517e-05	7.305313e-05	-1.739760e-07	9.999836e-07	-3.013400e-06	-8.832985e-05	-4.717832e-05	-4.115152e-05
240           	1.646044e+00	8.230232e-01	8.230212e-01	1.406942e-04	6.980651e-05	7.088771e-05	-5.406004e-07	1.020129e-06	-2.916386e-06	-4.689104e-05	-2.636191e-05	-2.052913e-05
245           	1.635566e+00	8.177840e-01	8.177819e-01	1.407756e-04	6.947855e-05	7.129705e-05	-9.092491e-07	1.035306e-06	-2.806735e-06	-3.785701e-05	-2.173524e-05	-1.612177e-05
250           	1.625648e+00	8.128252e-01	8.128231e-01	9.269439e-05	4.504085e-05	4.765354e-05	-1.306342e-06	1.062480e-06	-2.691318e-06	-8.806712e-05	-4.672488e-05	-4.134224e-05
255           	1.616412e+00	8.082070e-01	8.082048e-01	5.704165e-05	2.678031e-05	3.026134e-05	-1.740514e-06	1.079094e-06	-2.568478e-06	-6.941339e-05	-3.727517e-05	-3.213822e-05
260           	1.607294e+00	8.036482e-01	8.036460e-01	-1.916912e-05	-1.190387e-05	-7.265259e-06	-2.319304e-06	1.111248e-06	-2.418864e-06	-5.146263e-05	-2.815018e-05	-2.331245e-05
265           	1.598949e+00	7.994757e-01	7.994734e-01	2.516264e-05	9.919954e-06	1.524269e-05	-2.661367e-06	1.130805e-06	-2.111368e-06	-1.947027e-04	-9.946274e-05	-9.524000e-05
270           	1.590911e+00	7.954564e-01	7.954541e-01	5.354540e-05	2.368175e-05	2.986365e-05	-3.090948e-06	1.158577e-06	-2.060555e-06	-1.328783e-04	-6.849971e-05	-6.437860e-05
275           	1.583000e+00	7.915012e-01	7.914988e-01	6.173379e-05	2.731881e-05	3.441499e-05	-3.548088e-06	1.175370e-06	-1.919641e-06	-1.182697e-04	-6.105450e-05	-5.721522e-05
280           	1.575365e+00	7.876837e-01	7.876813e-01	2.359106e-06	-2.864479e-06	5.223585e-06	-4.044032e-06	1.195470e-06	-1.748989e-06	-1.301922e-04	-6.684511e-05	-6.334713e-05
285           	1.568062e+00	7.840324e-01	7.840300e-01	-1.071759e-05	-9.994766e-06	-7.228284e-07	-4.635969e-06	1.215252e-06	-1.552093e-06	-1.629993e-04	-8.305176e-05	-7.994757e-05
290           	1.561075e+00	7.805386e-01	7.805361e-01	7.452510e-05	3.234241e-05	4.218269e-05	-4.920141e-06	1.226768e-06	-1.313372e-06	-1.686268e-04	-8.562679e-05	-8.300005e-05
295           	1.554345e+00	7.771738e-01	7.771713e-01	1.324016e-05	1.181022e-06	1.205914e-05	-5.439059e-06	1.249407e-06	-1.140579e-06	-1.909945e-04	-9.663781e-05	-9.435665e-05
300           	1.547839e+00	7.739205e-01	7.739180e-01	-2.388922e-05	-1.782386e-05	-6.065358e-06	-5.879251e-06	1.266206e-06	-1.068000e-06	-1.862976e-04	-9.421679e-05	-9.208079e-05
305           	1.541617e+00	7.708099e-01	7.708074e-01	1.825122e-05	2.776342e-06	1.547487e-05	-6.349266e-06	1.276007e-06	-8.605796e-07	-1.517660e-04	-7.674359e-05	-7.502243e-05
310           	1.535642e+00	7.678224e-01	7.678198e-01	5.645204e-06	-4.003506e-06	9.648710e-06	-6.826108e-06	1.285048e-06	-6.676568e-07	-1.574274e-04	-7.938135e-05	-7.804604e-05
315           	1.529875e+00	7.649386e-01	7.649360e-01	-2.318841e-05	-1.888741e-05	-4.301008e-06	-7.293199e-06	1.295359e-06	-4.779174e-07	-1.818018e-04	-9.137883e-05	-9.042300e-05
320           	1.524318e+00	7.621601e-01	7.621576e-01	-9.280960e-05	-5.413677e-05	-3.867284e-05	-7.731966e-06	1.297607e-06	-2.871456e-07	-2.068219e-04	-1.036981e-04	-1.031238e-04
325           	1.518951e+00	7.594767e-01	7.594741e-01	-1.048400e-04	-6.058567e-05	-4.425436e-05	-8.165655e-06	1.306444e-06	-1.134763e-07	-2.669122e-04	-1.335696e-04	-1.333426e-04
330           	1.513749e+00	7.568760e-01	7.568734e-01	9.579172e-06	-3.822495e-06	1.340167e-05	-8.612081e-06	1.302857e-06	8.807610e-08	-1.821722e-04	-9.099805e-05	-9.117420e-05
335           	1.508744e+00	7.543731e-01	7.543705e-01	7.859926e-05	3.023103e-05	4.836823e-05	-9.068602e-06	1.305192e-06	3.005649e-07	-1.590200e-04	-7.920944e-05	-7.981057e-05
340           	1.503888e+00	7.519453e-01	7.519427e-01	1.556777e-04	6.833951e-05	8.733819e-05	-9.499337e-06	1.310656e-06	4.891364e-07	-8.006711e-05	-3.954442e-05	-4.052269e-05
345           	1.499207e+00	7.496049e-01	7.496022e-01	1.150300e-04	4.758741e-05	6.744259e-05	-9.927592e-06	1.322787e-06	6.811832e-07	-6.690143e-05	-3.276953e-05	-3.413190e-05
350           	1.494676e+00	7.473393e-01	7.473367e-01	3.542651e-05	7.363356e-06	2.806316e-05	-1.034990e-05	1.324912e-06	8.751864e-07	-9.173400e-05	-4.499182e-05	-4.674219e-05
355           	1.490207e+00	7.451047e-01	7.451020e-01	-1.692848e-06	-1.159006e-05	9.897216e-06	-1.074364e-05	1.340884e-06	1.075599e-06	-1.565921e-04	-7.722045e-05	-7.937165e-05
360           	1.485935e+00	7.429691e-01	7.429664e-01	-4.512908e-05	-3.374436e-05	-1.138472e-05	-1.117982e-05	1.346023e-06	1.253984e-06	-1.539355e-04	-7.571375e-05	-7.822172e-05
365           	1.481824e+00	7.409134e-01	7.409107e-01	-4.541444e-05	-3.424018e-05	-1.117427e-05	-1.153295e-05	1.352473e-06	1.438903e-06	-1.706397e-04	-8.388093e-05	-8.675874e-05
370           	1.477776e+00	7.388891e-01	7.388864e-01	-7.446402e-05	-4.913070e-05	-2.533332e-05	-1.189869e-05	1.351746e-06	1.621476e-06	-1.881047e-04	-9.243089e-05	-9.567384e-05
375           	1.473914e+00	7.369586e-01	7.369559e-01	-5.667159e-05	-4.058081e-05	-1.609078e-05	-1.224502e-05	1.352996e-06	1.801447e-06	-1.925096e-04	-9.445338e-05	-9.805627e-05
380           	1.470197e+00	7.350997e-01	7.350970e-01	-4.637354e-05	-3.575244e-05	-1.062110e-05	-1.256567e-05	1.348616e-06	1.973975e-06	-1.636830e-04	-7.986753e-05	-8.381548e-05
385           	1.466679e+00	7.333409e-01	7.333382e-01	-6.070114e-05	-4.323161e-05	-1.746953e-05	-1.288104e-05	1.360781e-06	2.141610e-06	-1.969406e-04	-9.632870e-05	-1.006119e-04
390           	1.463121e+00	7.315618e-01	7.315591e-01	-3.898256e-05	-3.265366e-05	-6.328898e-06	-1.316238e-05	1.366027e-06	2.295871e-06	-1.832352e-04	-8.932175e-05	-9.391349e-05
395           	1.459731e+00	7.298667e-01	7.298640e-01	-2.155818e-05	-2.419677e-05	2.638587e-06	-1.341768e-05	1.369625e-06	2.443608e-06	-1.968538e-04	-9.598330e-05	-1.008705e-04
400           	1.456326e+00	7.281643e-01	7.281616e-01	-1.120233e-04	-6.971024e-05	-4.231304e-05	-1.369860e-05	1.369918e-06	2.598927e-06	-1.945791e-04	-9.469063e-05	-9.988848e-05
405           	1.452982e+00	7.264924e-01	7.264896e-01	-5.342886e-05	-4.063657e-05	-1.279229e-05	-1.392214e-05	1.355181e-06	2.730184e-06	-1.928809e-04	-9.371024e-05	-9.917061e-05
410           	1.449863e+00	7.249326e-01	7.249299e-01	-4.532441e-05	-3.679404e-05	-8.530374e-06	-1.413183e-05	1.370117e-06	2.867815e-06	-2.083786e-04	-1.013215e-04	-1.070571e-04
415           	1.446823e+00	7.234129e-01	7.234102e-01	-8.539525e-05	-5.703508e-05	-2.836017e-05	-1.433746e-05	1.363847e-06	2.993721e-06	-2.132226e-04	-1.036176e-04	-1.096050e-04
420           	1.443897e+00	7.219499e-01	7.219471e-01	-4.687182e-05	-3.795750e-05	-8.914320e-06	-1.452159e-05	1.362504e-06	3.112182e-06	-2.210872e-04	-1.074314e-04	-1.136558e-04
425           	1.441088e+00	7.205455e-01	7.205428e-01	-7.005625e-05	-4.971299e-05	-2.034325e-05	-1.468487e-05	1.360140e-06	3.220654e-06	-2.048180e-04	-9.918833e-05	-1.056296e-04
430           	1.438365e+00	7.191837e-01	7.191810e-01	-6.165818e-05	-4.565363e-05	-1.600455e-05	-1.482454e-05	1.359704e-06	3.318020e-06	-1.974606e-04	-9.541230e-05	-1.020483e-04
435           	1.435672e+00	7.178373e-01	7.178346e-01	-5.190725e-05	-4.089802e-05	-1.100923e-05	-1.494440e-05	1.355680e-06	3.408854e-06	-1.965391e-04	-9.486069e-05	-1.016784e-04
440           	1.433058e+00	7.165305e-01	7.165278e-01	-6.431747e-05	-4.721009e-05	-1.710738e-05	-1.505135e-05	1.351497e-06	3.492897e-06	-2.016455e-04	-9.732986e-05	-1.043157e-04
445           	1.430507e+00	7.152548e-01	7.152521e-01	-7.029176e-05	-5.027847e-05	-2.001329e-05	-1.513259e-05	1.350168e-06	3.563177e-06	-2.113710e-04	-1.021223e-04	-1.092487e-04
450           	1.427997e+00	7.139997e-01	7.139970e-01	-5.840257e-05	-4.440428e-05	-1.399829e-05	-1.520299e-05	1.349327e-06	3.637769e-06	-2.077110e-04	-1.002177e-04	-1.074933e-04
455           	1.425609e+00	7.128059e-01	7.128032e-01	-6.899952e-05	-4.975268e-05	-1.924684e-05	-1.525292e-05	1.345064e-06	3.704939e-06	-2.131704e-04	-1.028802e-04	-1.102901e-04
460           	1.423293e+00	7.116477e-01	7.116450e-01	-7.103138e-05	-5.079413e-05	-2.023726e-05	-1.527843e-05	1.338626e-06	3.746892e-06	-2.110869e-04	-1.017966e-04	-1.092904e-04
465           	1.420989e+00	7.104957e-01	7.104931e-01	-4.889635e-05	-3.973304e-05	-9.163304e-06	-1.528487e-05	1.333577e-06	3.784935e-06	-2.085385e-04	-1.004843e-04	-1.080542e-04
470           	1.418799e+00	7.094006e-01	7.093980e-01	-6.640533e-05	-4.848114e-05	-1.792419e-05	-1.527848e-05	1.333016e-06	3.818499e-06	-2.111374e-04	-1.017502e-04	-1.093872e-04
475           	1.416625e+00	7.083138e-01	7.083111e-01	-7.606219e-05	-5.328438e-05	-2.277781e-05	-1.525329e-05	1.328967e-06	3.840502e-06	-2.183093e-04	-1.053141e-04	-1.129951e-04
480           	1.414481e+00	7.072420e-01	7.072393e-01	-7.444450e-05	-5.243490e-05	-2.200960e-05	-1.521265e-05	1.321739e-06	3.858678e-06	-2.194098e-04	-1.058462e-04	-1.135636e-04
485           	1.412381e+00	7.061918e-01	7.061892e-01	-8.260421e-05	-5.646077e-05	-2.614344e-05	-1.515866e-05	1.311058e-06	3.863728e-06	-1.994656e-04	-9.586909e-05	-1.035965e-04
490           	1.410406e+00	7.052041e-01	7.052015e-01	-8.311303e-05	-5.664150e-05	-2.647153e-05	-1.508498e-05	1.305351e-06	3.864394e-06	-2.015766e-04	-9.692392e-05	-1.046527e-04
495           	1.408262e+00	7.041323e-01	7.041297e-01	-6.868629e-05	-4.932985e-05	-1.935644e-05	-1.498670e-05	1.300024e-06	3.846399e-06	-1.882682e-04	-9.028772e-05	-9.798052e-05
500           	1.406371e+00	7.031867e-01	7.031841e-01	-7.766307e-05	-5.371600e-05	-2.394708e-05	-1.488446e-05	1.295188e-06	3.830011e-06	-1.843967e-04	-8.836832e-05	-9.602835e-05
505           	1.404473e+00	7.022377e-01	7.022351e-01	-7.965764e-05	-5.459451e-05	-2.506314e-05	-1.476569e-05	1.294375e-06	3.804085e-06	-1.818994e-04	-8.714563e-05	-9.475380e-05
510           	1.402636e+00	7.013193e-01	7.013167e-01	-8.831882e-05	-5.879369e-05	-2.952513e-05	-1.463428e-05	1.285995e-06	3.770688e-06	-1.897648e-04	-9.111169e-05	-9.865307e-05
515           	1.400811e+00	7.004068e-01	7.004043e-01	-7.898422e-05	-5.397730e-05	-2.500691e-05	-1.448519e-05	1.278315e-06	3.731273e-06	-1.802216e-04	-8.637954e-05	-9.384208e-05
520           	1.398964e+00	6.994832e-01	6.994807e-01	-8.021234e-05	-5.442980e-05	-2.578253e-05	-1.432363e-05	1.269792e-06	3.679056e-06	-1.871433e-04	-8.989257e-05	-9.725069e-05
525           	1.397193e+00	6.985976e-01	6.985951e-01	-7.390865e-05	-5.110497e-05	-2.280368e-05	-1.415065e-05	1.264701e-06	3.627464e-06	-1.791429e-04	-8.594398e-05	-9.319891e-05
530           	1.395473e+00	6.977378e-01	6.977353e-01	-7.444330e-05	-5.118607e-05	-2.325722e-05	-1.396442e-05	1.255497e-06	3.563221e-06	-1.846740e-04	-8.877378e-05	-9.590022e-05
535           	1.393718e+00	6.968604e-01	6.968579e-01	-6.545321e-05	-4.649148e-05	-1.896173e-05	-1.376488e-05	1.249627e-06	3.491412e-06	-1.753328e-04	-8.417499e-05	-9.115781e-05
540           	1.392132e+00	6.960672e-01	6.960647e-01	-6.698585e-05	-4.704964e-05	-1.993621e-05	-1.355672e-05	1.243160e-06	3.415784e-06	-1.791535e-04	-8.616096e-05	-9.299253e-05
545           	1.390352e+00	6.951770e-01	6.951745e-01	-7.446378e-05	-5.056964e-05	-2.389414e-05	-1.333775e-05	1.238192e-06	3.329613e-06	-1.873597e-04	-9.035023e-05	-9.700945e-05
550           	1.388763e+00	6.943825e-01	6.943801e-01	-6.982883e-05	-4.802684e-05	-2.180199e-05	-1.311243e-05	1.229109e-06	3.245839e-06	-1.764114e-04	-8.495985e-05	-9.145153e-05
555           	1.387285e+00	6.936435e-01	6.936411e-01	-6.669517e-05	-4.622691e-05	-2.046826e-05	-1.287933e-05	1.222331e-06	3.158965e-06	-1.762485e-04	-8.496530e-05	-9.128323e-05
560           	1.385780e+00	6.928914e-01	6.928890e-01	-6.415894e-05	-4.470497e-05	-1.945397e-05	-1.262550e-05	1.215919e-06	3.046853e-06	-1.832703e-04	-8.858831e-05	-9.468201e-05
565           	1.384344e+00	6.921733e-01	6.921708e-01	-5.172859e-05	-3.821760e-05	-1.351099e-05	-1.235331e-05	1.209719e-06	2.916681e-06	-1.705540e-04	-8.236033e-05	-8.819369e-05
570           	1.382888e+00	6.914454e-01	6.914430e-01	-4.181211e-05	-3.298810e-05	-8.824013e-06	-1.208204e-05	1.198669e-06	2.789474e-06	-1.700308e-04	-8.222591e-05	-8.780486e-05
575           	1.381440e+00	6.907213e-01	6.907189e-01	-5.486881e-05	-3.926811e-05	-1.560070e-05	-1.183370e-05	1.194817e-06	2.691515e-06	-1.622144e-04	-7.841567e-05	-8.379870e-05
580           	1.380142e+00	6.900720e-01	6.900697e-01	-5.752523e-05	-4.032738e-05	-1.719784e-05	-1.156477e-05	1.189130e-06	2.570557e-06	-1.490800e-04	-7.196946e-05	-7.711058e-05
585           	1.378794e+00	6.893980e-01	6.893957e-01	-4.776395e-05	-3.515845e-05	-1.260550e-05	-1.127647e-05	1.185380e-06	2.432594e-06	-1.401227e-04	-6.762876e-05	-7.249395e-05
590           	1.377479e+00	6.887406e-01	6.887383e-01	-6.393871e-05	-4.297111e-05	-2.096761e-05	-1.100175e-05	1.177512e-06	2.307414e-06	-1.419399e-04	-6.866256e-05	-7.327739e-05
595           	1.376209e+00	6.881054e-01	6.881031e-01	-6.441960e-05	-4.292818e-05	-2.149141e-05	-1.071839e-05	1.171640e-06	2.175534e-06	-1.460015e-04	-7.082521e-05	-7.517627e-05
600           	1.374911e+00	6.874566e-01	6.874543e-01	-4.203992e-05	-3.143832e-05	-1.060160e-05	-1.041836e-05	1.168684e-06	2.030073e-06	-1.494578e-04	-7.269883e-05	-7.675898e-05
605           	1.373643e+00	6.868225e-01	6.868202e-01	-5.226074e-05	-3.624690e-05	-1.601383e-05	-1.011653e-05	1.165452e-06	1.883540e-06	-1.558711e-04	-7.605200e-05	-7.981908e-05
610           	1.372380e+00	6.861914e-01	6.861891e-01	-5.445605e-05	-3.703754e-05	-1.741851e-05	-9.809513e-06	1.159364e-06	1.740463e-06	-1.556464e-04	-7.608273e-05	-7.956366e-05
615           	1.371152e+00	6.855773e-01	6.855750e-01	-4.024376e-05	-2.961689e-05	-1.062687e-05	-9.495006e-06	1.150163e-06	1.589512e-06	-1.367024e-04	-6.676170e-05	-6.994072e-05
620           	1.369914e+00	6.849583e-01	6.849560e-01	-4.648680e-05	-3.243173e-05	-1.405507e-05	-9.188333e-06	1.138856e-06	1.435487e-06	-1.272982e-04	-6.221360e-05	-6.508457e-05
625           	1.368852e+00	6.844270e-01	6.844247e-01	-3.027724e-05	-2.401167e-05	-6.265573e-06	-8.873049e-06	1.132077e-06	1.272743e-06	-1.294433e-04	-6.344892e-05	-6.599440e-05
630           	1.367521e+00	6.837617e-01	6.837594e-01	-2.296819e-05	-2.004918e-05	-2.919007e-06	-8.565086e-06	1.125755e-06	1.124559e-06	-1.431839e-04	-7.046739e-05	-7.271651e-05
635           	1.366351e+00	6.831766e-01	6.831743e-01	-1.216906e-05	-1.434081e-05	2.171744e-06	-8.256275e-06	1.117032e-06	9.641961e-07	-1.294608e-04	-6.376623e-05	-6.569462e-05
640           	1.365233e+00	6.826176e-01	6.826154e-01	-1.465391e-05	-1.525144e-05	5.975341e-07	-7.924489e-06	1.110613e-06	7.597888e-07	-1.370170e-04	-6.774872e-05	-6.926830e-05
645           	1.364128e+00	6.820649e-01	6.820627e-01	-1.625516e-05	-1.574798e-05	-5.071812e-07	-7.620399e-06	1.100609e-06	6.244732e-07	-1.512933e-04	-7.502218e-05	-7.627113e-05
650           	1.363041e+00	6.815216e-01	6.815194e-01	-3.650311e-05	-2.555556e-05	-1.094755e-05	-7.304002e-06	1.094400e-06	4.564614e-07	-1.473055e-04	-7.319627e-05	-7.410919e-05
655           	1.361948e+00	6.809751e-01	6.809729e-01	-4.061675e-05	-2.729925e-05	-1.331751e-05	-6.990870e-06	1.084058e-06	2.894226e-07	-1.405477e-04	-6.998441e-05	-7.056326e-05
660           	1.360831e+00	6.804168e-01	6.804146e-01	-4.376557e-05	-2.856511e-05	-1.520046e-05	-6.682324e-06	1.075751e-06	1.151952e-07	-1.397575e-04	-6.976355e-05	-6.999394e-05
665           	1.359745e+00	6.798738e-01	6.798717e-01	-3.955654e-05	-2.614905e-05	-1.340749e-05	-6.370782e-06	1.064923e-06	-4.826645e-08	-1.384115e-04	-6.925399e-05	-6.915746e-05
670           	1.358708e+00	6.793552e-01	6.793531e-01	-3.261022e-05	-2.236614e-05	-1.024408e-05	-6.061028e-06	1.057900e-06	-2.154585e-07	-1.375785e-04	-6.900470e-05	-6.857379e-05
675           	1.357681e+00	6.788415e-01	6.788394e-01	-2.898492e-05	-2.024379e-05	-8.741125e-06	-5.751334e-06	1.048271e-06	-3.838424e-07	-1.325091e-04	-6.663841e-05	-6.587072e-05
680           	1.356675e+00	6.783383e-01	6.783362e-01	-2.093142e-05	-1.590981e-05	-5.021611e-06	-5.444099e-06	1.038108e-06	-5.534188e-07	-1.279741e-04	-6.454045e-05	-6.343362e-05
685           	1.355682e+00	6.778418e-01	6.778398e-01	-1.330279e-05	-1.179068e-05	-1.512112e-06	-5.139282e-06	1.028841e-06	-7.237461e-07	-1.230160e-04	-6.223177e-05	-6.078427e-05
690           	1.354705e+00	6.773533e-01	6.773512e-01	-2.015218e-05	-1.491233e-05	-5.239846e-06	-4.836242e-06	1.019087e-06	-8.937613e-07	-1.235825e-04	-6.268503e-05	-6.089751e-05
695           	1.353760e+00	6.768808e-01	6.768788e-01	-1.387429e-05	-1.147360e-05	-2.400681e-06	-4.536462e-06	1.010529e-06	-1.063980e-06	-1.173944e-04	-5.976118e-05	-5.763322e-05
700           	1.352846e+00	6.764240e-01	6.764220e-01	-8.481154e-06	-8.476928e-06	-4.226220e-09	-4.236351e-06	9.999617e-07	-1.236254e-06	-1.125665e-04	-5.751949e-05	-5.504699e-05
705           	1.352009e+00	6.760056e-01	6.760036e-01	-1.141425e-06	-4.510328e-06	3.368904e-06	-3.939616e-06	9.891641e-07	-1.406904e-06	-1.116224e-04	-5.721813e-05	-5.440432e-05
710           	1.350805e+00	6.754033e-01	6.754013e-01	8.487306e-06	5.959075e-07	7.891398e-06	-3.647745e-06	9.783762e-07	-1.574962e-06	-1.050130e-04	-5.408144e-05	-5.093152e-05
715           	1.349840e+00	6.749209e-01	6.749190e-01	6.298905e-06	-2.103958e-07	6.509301e-06	-3.359848e-06	9.679958e-07	-1.742385e-06	-1.014122e-04	-5.244850e-05	-4.896373e-05
720           	1.348952e+00	6.744768e-01	6.744748e-01	5.906679e-06	-1.209278e-07	6.027607e-06	-3.074267e-06	9.547810e-07	-1.909671e-06	-9.389955e-05	-4.885945e-05	-4.504011e-05
725           	1.348058e+00	6.740301e-01	6.740282e-01	4.116608e-06	-7.332416e-07	4.849850e-06	-2.791546e-06	9.422014e-07	-2.073222e-06	-9.149233e-05	-4.781939e-05	-4.367294e-05
730           	1.347162e+00	6.735821e-01	6.735803e-01	4.934502e-06	-4.653610e-08	4.981038e-06	-2.513787e-06	9.310722e-07	-2.238990e-06	-9.205674e-05	-4.826736e-05	-4.378938e-05
735           	1.346286e+00	6.731440e-01	6.731421e-01	1.346304e-05	4.491281e-06	8.971762e-06	-2.240240e-06	9.197567e-07	-2.402471e-06	-9.006029e-05	-4.743262e-05	-4.262768e-05
740           	1.345409e+00	6.727055e-01	6.727037e-01	1.999496e-05	8.027020e-06	1.196794e-05	-1.970458e-06	9.090444e-07	-2.564081e-06	-8.210217e-05	-4.361516e-05	-3.848700e-05
745           	1.344540e+00	6.722707e-01	6.722689e-01	1.070763e-05	3.647803e-06	7.059824e-06	-1.706011e-06	8.981750e-07	-2.724089e-06	-8.107673e-05	-4.326245e-05	-3.781428e-05
750           	1.343690e+00	6.718460e-01	6.718442e-01	1.409689e-05	5.603268e-06	8.493627e-06	-1.445180e-06	8.870498e-07	-2.882161e-06	-7.722919e-05	-4.149676e-05	-3.573243e-05
755           	1.342841e+00	6.714213e-01	6.714196e-01	3.101329e-05	1.431854e-05	1.669475e-05	-1.188110e-06	8.743854e-07	-3.036728e-06	-7.604185e-05	-4.105765e-05	-3.498420e-05
760           	1.342011e+00	6.710065e-01	6.710048e-01	3.501374e-05	1.657154e-05	1.844220e-05	-9.353291e-07	8.652437e-07	-3.192794e-06	-6.735422e-05	-3.686990e-05	-3.048431e-05
765           	1.341192e+00	6.705967e-01	6.705950e-01	4.351776e-05	2.107151e-05	2.244625e-05	-6.873703e-07	8.546930e-07	-3.348748e-06	-5.546558e-05	-3.108154e-05	-2.438404e-05
770           	1.340419e+00	6.702105e-01	6.702088e-01	4.165350e-05	2.036522e-05	2.128828e-05	-4.615283e-07	8.426109e-07	-3.492373e-06	-4.676103e-05	-2.687289e-05	-1.988814e-05
775           	1.339628e+00	6.698146e-01	6.698129e-01	3.292159e-05	1.624589e-05	1.667570e-05	-2.149078e-07	8.302942e-07	-3.649054e-06	-6.273587e-05	-3.501699e-05	-2.771888e-05
780           	1.338943e+00	6.694722e-01	6.694705e-01	3.070501e-05	1.537715e-05	1.532786e-05	2.464198e-08	8.192783e-07	-3.796139e-06	-5.070592e-05	-2.914910e-05	-2.155682e-05
785           	1.338138e+00	6.690700e-01	6.690684e-01	3.876738e-06	2.179435e-06	1.697303e-06	2.410660e-07	8.086961e-07	-3.938095e-06	-5.893905e-05	-3.340762e-05	-2.553143e-05
790           	1.337159e+00	6.685803e-01	6.685787e-01	1.049579e-05	5.703883e-06	4.791911e-06	4.559859e-07	7.992096e-07	-4.070939e-06	-5.131500e-05	-2.972844e-05	-2.158656e-05
795           	1.336362e+00	6.681818e-01	6.681802e-01	2.662749e-05	1.402127e-05	1.260622e-05	7.075263e-07	7.838539e-07	-4.216582e-06	-4.521711e-05	-2.682514e-05	-1.839197e-05
800           	1.335558e+00	6.677796e-01	6.677781e-01	3.825368e-05	2.005648e-05	1.819721e-05	9.296337e-07	7.709816e-07	-4.354543e-06	-4.592966e-05	-2.731937e-05	-1.861029e-05
805           	1.334925e+00	6.674631e-01	6.674616e-01	3.177951e-05	1.703316e-05	1.474635e-05	1.143409e-06	7.586137e-07	-4.488310e-06	-4.050118e-05	-2.473890e-05	-1.576228e-05
810           	1.334179e+00	6.670905e-01	6.670890e-01	2.528144e-05	1.398420e-05	1.129723e-05	1.343483e-06	7.525254e-07	-4.622831e-06	-4.034046e-05	-2.479306e-05	-1.554740e-05
815           	1.333463e+00	6.667324e-01	6.667310e-01	5.142378e-05	2.727386e-05	2.414992e-05	1.561970e-06	7.354743e-07	-4.720529e-06	-4.655578e-05	-2.799842e-05	-1.855736e-05
820           	1.332749e+00	6.663754e-01	6.663740e-01	4.977445e-05	2.664858e-05	2.312587e-05	1.761354e-06	7.259292e-07	-4.854434e-06	-4.459647e-05	-2.715267e-05	-1.744380e-05
825           	1.332027e+00	6.660142e-01	6.660127e-01	4.789652e-05	2.589801e-05	2.199851e-05	1.949753e-06	7.135865e-07	-4.982608e-06	-3.821312e-05	-2.408917e-05	-1.412395e-05