/*--------------------------------*- C++ -*----------------------------------*\
| =========                 |                                                 |
| \\      /  F ield         | OpenFOAM: The Open Source CFD Toolbox           |
|  \\    /   O peration     | Version:  2212                                  |
|   \\  /    A nd           | Website:  www.openfoam.com                      |
|    \\/     M anipulation  |                                                 |
\*---------------------------------------------------------------------------*/
FoamFile
{
    version     2.0;
    format      ascii;
    arch        "LSB;label=32;scalar=64";
    class       volScalarField;
    location    "0";
    object      p;
}
// * * * * * * * * * * * * * * * * * * * * * * * * * * * * * * * * * * * * * //

dimensions      [0 2 -2 0 0 0 0];

internalField   nonuniform List<scalar> 
179928
(
-7.84257e-12
-2.74905e-12
-2.86007e-13
1.27012e-13
3.39801e-13
4.34536e-13
4.80012e-13
4.92754e-13
4.64461e-13
4.24895e-13
4.83541e-13
4.51373e-13
3.99597e-13
3.82713e-13
3.53282e-13
3.31095e-13
3.07252e-13
2.87835e-13
2.67292e-13
2.78073e-13
2.21659e-13
1.50226e-13
1.86509e-13
1.69436e-13
1.56644e-13
1.48833e-13
1.55873e-13
1.71411e-13
4.60997e-13
3.67792e-13
-3.24043e-12
-1.68044e-12
-3.7186e-13
1.29184e-13
3.50166e-13
4.44303e-13
4.81806e-13
4.88045e-13
4.75846e-13
4.59554e-13
4.55916e-13
4.40966e-13
4.08327e-13
3.81432e-13
3.5504e-13
3.30757e-13
3.08366e-13
2.88705e-13
2.71653e-13
2.51506e-13
2.17929e-13
1.8744e-13
1.76338e-13
1.64246e-13
1.52172e-13
1.41713e-13
1.31141e-13
1.18952e-13
1.4423e-13
1.15979e-13
-2.68085e-12
-8.04289e-13
1.39531e-13
3.02624e-13
4.15018e-13
4.74544e-13
4.98415e-13
4.98371e-13
4.8507e-13
4.70923e-13
4.56581e-13
4.35623e-13
4.08117e-13
3.8121e-13
3.55657e-13
3.31307e-13
3.08445e-13
2.86864e-13
2.67024e-13
2.4557e-13
2.19777e-13
1.93568e-13
1.75731e-13
1.62279e-13
1.46922e-13
1.30915e-13
1.13836e-13
1.01599e-13
1.11717e-13
1.15682e-14
-1.84529e-12
-7.90789e-14
5.39228e-13
4.97888e-13
5.09323e-13
5.23324e-13
5.26547e-13
5.15134e-13
4.97703e-13
4.80841e-13
4.58673e-13
4.3458e-13
4.07767e-13
3.81202e-13
3.5566e-13
3.31045e-13
3.07525e-13
2.84857e-13
2.634e-13
2.41687e-13
2.19129e-13
1.97297e-13
1.75233e-13
1.6174e-13
1.44699e-13
1.27813e-13
1.14918e-13
1.20273e-13
1.42948e-13
-8.14539e-15
-1.19363e-12
2.94043e-13
7.22571e-13
6.40551e-13
6.00906e-13
5.77715e-13
5.59346e-13
5.39009e-13
5.13082e-13
4.87236e-13
4.62234e-13
4.35764e-13
4.08442e-13
3.81429e-13
3.55397e-13
3.30283e-13
3.06234e-13
2.83034e-13
2.60775e-13
2.38812e-13
2.16723e-13
1.95954e-13
1.79411e-13
1.61948e-13
1.44571e-13
1.28496e-13
1.19726e-13
1.11205e-13
1.2417e-13
3.41276e-14
-1.57414e-12
1.64854e-13
7.94791e-13
7.0521e-13
6.58104e-13
6.29381e-13
5.91497e-13
5.60772e-13
5.2675e-13
4.94428e-13
4.66669e-13
4.38176e-13
4.0985e-13
3.81877e-13
3.55075e-13
3.29345e-13
3.04841e-13
2.81368e-13
2.58748e-13
2.36555e-13
2.14516e-13
1.93974e-13
1.79602e-13
1.62086e-13
1.4719e-13
1.31146e-13
9.76124e-14
9.99578e-14
1.289e-13
3.18038e-14
-1.993e-12
-1.13672e-13
7.26981e-13
7.39827e-13
7.01732e-13
6.46774e-13
6.12745e-13
5.7875e-13
5.39792e-13
5.0386e-13
4.70349e-13
4.40318e-13
4.1105e-13
3.82234e-13
3.54636e-13
3.28315e-13
3.03312e-13
2.79506e-13
2.56499e-13
2.33645e-13
2.12846e-13
1.94574e-13
1.79198e-13
1.63175e-13
1.37589e-13
1.23118e-13
1.1881e-13
1.05625e-13
1.15121e-13
2.16204e-14
-2.2878e-12
-3.54467e-13
6.29019e-13
7.14312e-13
7.08261e-13
6.72018e-13
6.26922e-13
5.86259e-13
5.49061e-13
5.11062e-13
4.75397e-13
4.42459e-13
4.11527e-13
3.82036e-13
3.5402e-13
3.27212e-13
3.01583e-13
2.77166e-13
2.54128e-13
2.32378e-13
2.1263e-13
1.94329e-13
1.78423e-13
1.59173e-13
1.4572e-13
1.30611e-13
1.16946e-13
1.05442e-13
1.12043e-13
2.22536e-14
-2.48684e-12
-5.06283e-13
5.50899e-13
6.78452e-13
6.99585e-13
6.71645e-13
6.33912e-13
5.94374e-13
5.53739e-13
5.14991e-13
4.78383e-13
4.44051e-13
4.11927e-13
3.81772e-13
3.5338e-13
3.26153e-13
3.00025e-13
2.75166e-13
2.52257e-13
2.3103e-13
2.11623e-13
1.93679e-13
1.78986e-13
1.64381e-13
1.46774e-13
1.36431e-13
1.22018e-13
1.06736e-13
1.16715e-13
2.61717e-14
-2.62528e-12
-5.68291e-13
5.15568e-13
6.47518e-13
6.76135e-13
6.62374e-13
6.31518e-13
5.95084e-13
5.55785e-13
5.16763e-13
4.79803e-13
4.4509e-13
4.12119e-13
3.81456e-13
3.52705e-13
3.2513e-13
2.98621e-13
2.7353e-13
2.50663e-13
2.297e-13
2.10407e-13
1.93496e-13
1.79102e-13
1.64675e-13
1.5029e-13
1.3755e-13
1.26757e-13
1.24492e-13
1.32205e-13
6.26836e-15
-2.63767e-12
-6.01856e-13
4.71046e-13
6.04274e-13
6.4817e-13
6.46837e-13
6.24558e-13
5.92333e-13
5.55176e-13
5.17066e-13
4.80423e-13
4.45318e-13
4.12178e-13
3.81167e-13
3.52033e-13
3.24169e-13
2.97441e-13
2.72307e-13
2.49299e-13
2.2839e-13
2.09508e-13
1.9304e-13
1.78992e-13
1.65455e-13
1.5152e-13
1.37228e-13
1.24166e-13
1.19633e-13
1.34415e-13
-1.22391e-14
-2.5808e-12
-6.87064e-13
3.90087e-13
5.6039e-13
6.21775e-13
6.30936e-13
6.15508e-13
5.87701e-13
5.53169e-13
5.16481e-13
4.79998e-13
4.45144e-13
4.12143e-13
3.80957e-13
3.51487e-13
3.23382e-13
2.96565e-13
2.71428e-13
2.48267e-13
2.27173e-13
2.08554e-13
1.92645e-13
1.78851e-13
1.66141e-13
1.52374e-13
1.38331e-13
1.26639e-13
1.21581e-13
9.08383e-14
-1.76734e-14
-2.63371e-12
-8.00171e-13
3.1108e-13
5.1937e-13
5.97666e-13
6.16039e-13
6.06355e-13
5.8262e-13
5.50776e-13
5.1518e-13
4.79281e-13
4.44826e-13
4.12048e-13
3.8087e-13
3.51226e-13
3.22952e-13
2.96059e-13
2.70832e-13
2.4751e-13
2.26302e-13
2.07776e-13
1.92238e-13
1.78928e-13
1.6641e-13
1.52979e-13
1.38743e-13
1.26307e-13
1.14811e-13
7.84422e-14
1.56133e-14
-2.68989e-12
-8.78559e-13
2.49893e-13
4.84458e-13
5.76862e-13
6.0315e-13
5.98585e-13
5.78182e-13
5.48353e-13
5.13894e-13
4.78652e-13
4.44624e-13
4.12112e-13
3.81044e-13
3.5135e-13
3.22973e-13
2.95985e-13
2.70618e-13
2.47123e-13
2.25812e-13
2.07315e-13
1.91988e-13
1.78945e-13
1.667e-13
1.53394e-13
1.38926e-13
1.26534e-13
1.15537e-13
8.14992e-14
1.3135e-14
-2.74994e-12
-9.25768e-13
2.15455e-13
4.60894e-13
5.61856e-13
5.93788e-13
5.92981e-13
5.74988e-13
5.46693e-13
5.13077e-13
4.78388e-13
4.44763e-13
4.12543e-13
3.81624e-13
3.51948e-13
3.23509e-13
2.96416e-13
2.7089e-13
2.47199e-13
2.25722e-13
2.07182e-13
1.91966e-13
1.79121e-13
1.66911e-13
1.53669e-13
1.39364e-13
1.27418e-13
1.16995e-13
8.0353e-14
1.18076e-14
-2.78264e-12
-9.47516e-13
2.01984e-13
4.50394e-13
5.54605e-13
5.8916e-13
5.90297e-13
5.73696e-13
5.4617e-13
5.13098e-13
4.78775e-13
4.45432e-13
4.13445e-13
3.8269e-13
3.5308e-13
3.24606e-13
2.97385e-13
2.71666e-13
2.47757e-13
2.2609e-13
2.07438e-13
1.92178e-13
1.79359e-13
1.67199e-13
1.53761e-13
1.39764e-13
1.28055e-13
1.17639e-13
8.07303e-14
1.20077e-14
-2.77841e-12
-9.38656e-13
2.06741e-13
4.527e-13
5.55555e-13
5.89857e-13
5.91018e-13
5.74392e-13
5.47043e-13
5.14152e-13
4.79973e-13
4.46739e-13
4.14873e-13
3.84269e-13
3.54766e-13
3.26272e-13
2.98892e-13
2.72939e-13
2.48801e-13
2.26946e-13
2.08113e-13
1.92659e-13
1.79585e-13
1.67276e-13
1.54046e-13
1.39889e-13
1.28148e-13
1.17627e-13
8.12015e-14
1.24473e-14
-2.73296e-12
-9.01735e-13
2.33904e-13
4.67568e-13
5.63954e-13
5.95337e-13
5.94871e-13
5.77289e-13
5.49346e-13
5.16223e-13
4.81943e-13
4.48673e-13
4.16848e-13
3.86362e-13
3.56979e-13
3.28472e-13
3.00912e-13
2.74707e-13
2.50322e-13
2.2823e-13
2.09153e-13
1.93396e-13
1.79976e-13
1.67341e-13
1.53898e-13
1.39763e-13
1.27955e-13
1.17466e-13
8.14961e-14
1.31748e-14
-2.67807e-12
-8.21203e-13
2.84619e-13
4.92064e-13
5.78091e-13
6.04702e-13
6.0164e-13
5.81929e-13
5.52858e-13
5.19165e-13
4.84605e-13
4.51171e-13
4.193e-13
3.88887e-13
3.5964e-13
3.31138e-13
3.0338e-13
2.76912e-13
2.52282e-13
2.29921e-13
2.10537e-13
1.94369e-13
1.80409e-13
1.6745e-13
1.53453e-13
1.39193e-13
1.269e-13
1.16426e-13
8.82015e-14
1.46123e-14
-2.65739e-12
-7.26712e-13
3.4958e-13
5.23945e-13
5.97023e-13
6.17232e-13
6.10389e-13
5.88206e-13
5.57045e-13
5.2263e-13
4.87858e-13
4.54111e-13
4.22057e-13
3.91707e-13
3.62652e-13
3.34184e-13
3.06216e-13
2.79441e-13
2.54599e-13
2.3205e-13
2.12225e-13
1.95337e-13
1.81064e-13
1.67513e-13
1.53163e-13
1.384e-13
1.25332e-13
1.17429e-13
9.99288e-14
1.08338e-14
-2.7098e-12
-6.64626e-13
4.14534e-13
5.60751e-13
6.19986e-13
6.32115e-13
6.20059e-13
5.94801e-13
5.61753e-13
5.26192e-13
4.91309e-13
4.57368e-13
4.25016e-13
3.94738e-13
3.65882e-13
3.37456e-13
3.0935e-13
2.82261e-13
2.57272e-13
2.3457e-13
2.14019e-13
1.96403e-13
1.81656e-13
1.67512e-13
1.53274e-13
1.38626e-13
1.25374e-13
1.18063e-13
1.0906e-13
-1.36492e-15
-2.45354e-12
-5.60106e-13
4.36038e-13
5.92399e-13
6.45664e-13
6.47849e-13
6.28624e-13
5.99921e-13
5.65817e-13
5.30271e-13
4.94718e-13
4.60586e-13
4.28184e-13
3.97948e-13
3.69138e-13
3.40744e-13
3.12667e-13
2.85451e-13
2.6029e-13
2.37226e-13
2.16433e-13
1.97807e-13
1.81611e-13
1.6656e-13
1.52645e-13
1.4026e-13
1.27653e-13
1.1312e-13
1.03754e-13
2.34324e-15
-2.33042e-12
-4.68903e-13
4.81421e-13
6.16634e-13
6.65719e-13
6.6133e-13
6.36621e-13
6.03149e-13
5.69248e-13
5.33009e-13
4.97301e-13
4.6321e-13
4.31308e-13
4.01189e-13
3.72339e-13
3.43987e-13
3.16048e-13
2.88915e-13
2.63298e-13
2.39695e-13
2.18165e-13
1.99836e-13
1.81533e-13
1.65313e-13
1.50978e-13
1.39168e-13
1.19313e-13
1.02343e-13
1.07512e-13
1.79926e-14
-2.38648e-12
-4.4767e-13
5.35355e-13
6.54625e-13
6.83393e-13
6.68273e-13
6.40315e-13
6.05646e-13
5.69129e-13
5.32866e-13
4.98324e-13
4.65376e-13
4.34307e-13
4.0434e-13
3.75447e-13
3.47156e-13
3.19438e-13
2.92554e-13
2.66601e-13
2.4178e-13
2.19155e-13
1.99057e-13
1.82289e-13
1.66299e-13
1.52081e-13
1.3183e-13
1.19702e-13
1.04502e-13
1.11844e-13
2.04495e-14
-2.45954e-12
-4.44176e-13
5.81203e-13
6.80484e-13
6.92944e-13
6.70868e-13
6.37803e-13
6.04001e-13
5.67997e-13
5.31529e-13
4.98614e-13
4.67585e-13
4.37029e-13
4.07167e-13
3.78394e-13
3.50161e-13
3.22716e-13
2.96086e-13
2.70289e-13
2.44791e-13
2.20372e-13
1.99453e-13
1.82979e-13
1.66156e-13
1.48344e-13
1.3655e-13
1.19147e-13
1.04324e-13
1.14632e-13
2.04487e-14
-2.49637e-12
-4.29345e-13
6.11684e-13
6.88272e-13
6.86978e-13
6.65665e-13
6.3006e-13
5.9707e-13
5.63213e-13
5.31671e-13
5.00361e-13
4.69209e-13
4.38899e-13
4.09424e-13
3.80963e-13
3.52936e-13
3.25613e-13
2.99009e-13
2.73445e-13
2.48701e-13
2.25235e-13
2.02188e-13
1.83026e-13
1.64173e-13
1.49644e-13
1.36573e-13
1.17869e-13
1.06859e-13
1.16918e-13
1.90683e-14
-2.44626e-12
-3.83976e-13
6.06391e-13
6.61243e-13
6.60806e-13
6.4927e-13
6.16932e-13
5.86563e-13
5.5831e-13
5.32005e-13
5.01792e-13
4.71265e-13
4.40828e-13
4.11491e-13
3.83212e-13
3.5537e-13
3.28251e-13
3.01932e-13
2.77043e-13
2.53151e-13
2.30011e-13
2.06898e-13
1.82738e-13
1.64372e-13
1.54543e-13
1.37967e-13
1.076e-13
1.08964e-13
1.22428e-13
2.07444e-14
-2.40513e-12
-3.86614e-13
5.19149e-13
5.88191e-13
6.21829e-13
6.1388e-13
6.028e-13
5.81358e-13
5.54094e-13
5.30308e-13
5.02755e-13
4.74022e-13
4.43146e-13
4.13362e-13
3.84981e-13
3.57161e-13
3.30437e-13
3.04876e-13
2.81296e-13
2.57748e-13
2.3356e-13
2.09205e-13
1.85414e-13
1.67157e-13
1.44268e-13
1.3721e-13
1.34338e-13
1.3578e-13
1.0677e-13
3.50063e-14
-2.48331e-12
-6.95513e-13
2.59676e-13
4.83896e-13
5.74561e-13
5.97904e-13
5.92303e-13
5.75657e-13
5.50027e-13
5.26118e-13
5.04547e-13
4.78102e-13
4.45483e-13
4.14702e-13
3.86061e-13
3.57815e-13
3.31736e-13
3.0743e-13
2.85941e-13
2.63291e-13
2.35402e-13
2.08206e-13
1.86955e-13
1.63229e-13
1.38703e-13
1.60502e-13
1.64047e-13
1.52639e-13
1.67965e-13
8.63691e-14
-5.33777e-12
-2.18254e-12
5.48522e-14
4.65748e-13
5.60221e-13
5.93844e-13
5.921e-13
5.75305e-13
5.42491e-13
5.15643e-13
5.10564e-13
4.87748e-13
4.45458e-13
4.15109e-13
3.86446e-13
3.56931e-13
3.31665e-13
3.08468e-13
2.89573e-13
2.77492e-13
2.31553e-13
2.01454e-13
1.88848e-13
1.7138e-13
1.14997e-13
1.8928e-13
2.14665e-13
2.40884e-13
3.42598e-13
3.13269e-13
-3.76371e-12
-1.77884e-12
-4.03827e-13
9.74353e-14
3.34504e-13
4.36829e-13
4.78187e-13
4.85109e-13
4.70687e-13
4.62499e-13
4.61359e-13
4.37152e-13
4.07925e-13
3.8045e-13
3.54289e-13
3.30792e-13
3.08232e-13
2.88308e-13
2.68953e-13
2.52333e-13
2.23571e-13
1.85977e-13
1.73809e-13
1.63175e-13
1.51599e-13
1.39595e-13
1.31297e-13
1.30018e-13
1.71263e-13
8.07817e-14
-6.13482e-13
-8.95786e-13
-4.01669e-13
1.18289e-13
3.48769e-13
4.45217e-13
4.8189e-13
4.87617e-13
4.78941e-13
4.69481e-13
4.55246e-13
4.33755e-13
4.08379e-13
3.81331e-13
3.551e-13
3.30997e-13
3.08747e-13
2.8852e-13
2.67574e-13
2.45119e-13
2.21775e-13
1.94323e-13
1.74584e-13
1.60811e-13
1.47935e-13
1.33405e-13
1.14145e-13
8.034e-14
4.17307e-14
1.04996e-13
1.18129e-13
1.04741e-14
9.15234e-14
2.88337e-13
4.13684e-13
4.75307e-13
4.97964e-13
4.98924e-13
4.91041e-13
4.74545e-13
4.54091e-13
4.33313e-13
4.07108e-13
3.81203e-13
3.55711e-13
3.31373e-13
3.08533e-13
2.86198e-13
2.65011e-13
2.42165e-13
2.18352e-13
1.98406e-13
1.77132e-13
1.58686e-13
1.42791e-13
1.24327e-13
9.92406e-14
6.41639e-14
3.03985e-14
5.76817e-14
1.87426e-12
8.96247e-13
4.46677e-13
4.73491e-13
5.06707e-13
5.24132e-13
5.26106e-13
5.17392e-13
5.03473e-13
4.80169e-13
4.57422e-13
4.33423e-13
4.06865e-13
3.81146e-13
3.55732e-13
3.31096e-13
3.07531e-13
2.84207e-13
2.61835e-13
2.40141e-13
2.16613e-13
1.98302e-13
1.78679e-13
1.58534e-13
1.40665e-13
1.20964e-13
9.70941e-14
7.01488e-14
4.05208e-14
5.07243e-14
2.05599e-12
1.2298e-12
6.84803e-13
6.22662e-13
5.99963e-13
5.79477e-13
5.61618e-13
5.3977e-13
5.14887e-13
4.88088e-13
4.61955e-13
4.34792e-13
4.07851e-13
3.81311e-13
3.5539e-13
3.30296e-13
3.06118e-13
2.82481e-13
2.59548e-13
2.37479e-13
2.16175e-13
1.96017e-13
1.78364e-13
1.60347e-13
1.41943e-13
1.21264e-13
1.01387e-13
6.45392e-14
4.46011e-14
5.50072e-14
1.52113e-12
1.02967e-12
7.65919e-13
7.16051e-13
6.54242e-13
6.2937e-13
5.95658e-13
5.60602e-13
5.27545e-13
4.96771e-13
4.66135e-13
4.37272e-13
4.09081e-13
3.81581e-13
3.54983e-13
3.29334e-13
3.04593e-13
2.80604e-13
2.57431e-13
2.35092e-13
2.14464e-13
1.95601e-13
1.76876e-13
1.61193e-13
1.46201e-13
1.15451e-13
9.0413e-14
8.05104e-14
4.91947e-14
4.34958e-14
1.09387e-12
7.44815e-13
6.98544e-13
7.40544e-13
7.0436e-13
6.50503e-13
6.15672e-13
5.80458e-13
5.4079e-13
5.03213e-13
4.70653e-13
4.39933e-13
4.10133e-13
3.81706e-13
3.54499e-13
3.28309e-13
3.02964e-13
2.7848e-13
2.55237e-13
2.33218e-13
2.12144e-13
1.94113e-13
1.7867e-13
1.62526e-13
1.35067e-13
1.18041e-13
1.0466e-13
8.25166e-14
4.44265e-14
3.8794e-14
7.1872e-13
5.06401e-13
6.15878e-13
7.18667e-13
7.10578e-13
6.74405e-13
6.29568e-13
5.87826e-13
5.50231e-13
5.11084e-13
4.74742e-13
4.41706e-13
4.10944e-13
3.81742e-13
3.53879e-13
3.2714e-13
3.01287e-13
2.76501e-13
2.52829e-13
2.30922e-13
2.11482e-13
1.93953e-13
1.77819e-13
1.57536e-13
1.43333e-13
1.23202e-13
1.03966e-13
8.21808e-14
4.5607e-14
3.91854e-14
5.52285e-13
4.02319e-13
5.51493e-13
6.81401e-13
6.97257e-13
6.71248e-13
6.37099e-13
5.96451e-13
5.54626e-13
5.15513e-13
4.78091e-13
4.42904e-13
4.11143e-13
3.81564e-13
3.53216e-13
3.2597e-13
2.99724e-13
2.74465e-13
2.50415e-13
2.29248e-13
2.10679e-13
1.92906e-13
1.7814e-13
1.63596e-13
1.44135e-13
1.24139e-13
1.05558e-13
8.22158e-14
4.86242e-14
4.31001e-14
7.15804e-13
3.93442e-13
4.79719e-13
6.35258e-13
6.75846e-13
6.64884e-13
6.34931e-13
5.97645e-13
5.57254e-13
5.17372e-13
4.79436e-13
4.43811e-13
4.11172e-13
3.81028e-13
3.52518e-13
3.24911e-13
2.98219e-13
2.72537e-13
2.48881e-13
2.27789e-13
2.09227e-13
1.9276e-13
1.78691e-13
1.64419e-13
1.48454e-13
1.29872e-13
1.06401e-13
7.82913e-14
4.6668e-14
4.86283e-14
5.79154e-13
3.03309e-13
4.17754e-13
5.97703e-13
6.52849e-13
6.50573e-13
6.27928e-13
5.95247e-13
5.56925e-13
5.17448e-13
4.79707e-13
4.44458e-13
4.11238e-13
3.80387e-13
3.51617e-13
3.23784e-13
2.96708e-13
2.71084e-13
2.47936e-13
2.26743e-13
2.07922e-13
1.92079e-13
1.78776e-13
1.65254e-13
1.49657e-13
1.32442e-13
1.10492e-13
7.51624e-14
3.59571e-14
4.97776e-14
2.77087e-13
1.42837e-13
3.58838e-13
5.61162e-13
6.28242e-13
6.35599e-13
6.19354e-13
5.90924e-13
5.54937e-13
5.16354e-13
4.79444e-13
4.44332e-13
4.11196e-13
3.8006e-13
3.50779e-13
3.22703e-13
2.95588e-13
2.7018e-13
2.4689e-13
2.25808e-13
2.06961e-13
1.91374e-13
1.78754e-13
1.65958e-13
1.508e-13
1.33704e-13
1.12202e-13
7.93633e-14
3.15553e-14
3.89094e-14
-7.62715e-14
-2.72511e-14
3.03724e-13
5.25216e-13
6.05577e-13
6.21193e-13
6.10573e-13
5.85918e-13
5.52202e-13
5.1537e-13
4.7873e-13
4.43922e-13
4.11034e-13
3.7985e-13
3.50313e-13
3.2203e-13
2.94922e-13
2.69474e-13
2.46048e-13
2.24804e-13
2.06469e-13
1.91295e-13
1.78711e-13
1.66313e-13
1.51336e-13
1.33789e-13
1.09397e-13
7.45406e-14
4.72734e-14
3.73059e-14
-2.12388e-13
-1.2698e-13
2.5148e-13
4.9357e-13
5.85698e-13
6.08431e-13
6.02848e-13
5.81361e-13
5.50044e-13
5.14273e-13
4.7802e-13
4.43705e-13
4.1102e-13
3.79931e-13
3.50285e-13
3.21873e-13
2.94722e-13
2.69168e-13
2.45589e-13
2.24254e-13
2.05941e-13
1.91557e-13
1.78886e-13
1.66566e-13
1.51574e-13
1.34039e-13
1.09759e-13
7.63278e-14
5.06656e-14
3.66555e-14
-2.38859e-13
-1.65059e-13
2.16899e-13
4.7052e-13
5.70906e-13
5.99148e-13
5.97389e-13
5.78357e-13
5.48467e-13
5.1348e-13
4.777e-13
4.43828e-13
4.1146e-13
3.80473e-13
3.50794e-13
3.22307e-13
2.95082e-13
2.69415e-13
2.45664e-13
2.24094e-13
2.05764e-13
1.91624e-13
1.79203e-13
1.66904e-13
1.51787e-13
1.34518e-13
1.10754e-13
7.77006e-14
5.1573e-14
3.61271e-14
-2.53609e-13
-1.80032e-13
2.02669e-13
4.59785e-13
5.6365e-13
5.94638e-13
5.94827e-13
5.77079e-13
5.48005e-13
5.13528e-13
4.78075e-13
4.44487e-13
4.12375e-13
3.81541e-13
3.51919e-13
3.23392e-13
2.96043e-13
2.70191e-13
2.46219e-13
2.24431e-13
2.06019e-13
1.91876e-13
1.79469e-13
1.67114e-13
1.51999e-13
1.34901e-13
1.11399e-13
7.84147e-14
5.20521e-14
3.60522e-14
-2.48322e-13
-1.77915e-13
2.05979e-13
4.61834e-13
5.6468e-13
5.95402e-13
5.95527e-13
5.77809e-13
5.48874e-13
5.14589e-13
4.79343e-13
4.45832e-13
4.13792e-13
3.83151e-13
3.53675e-13
3.25135e-13
2.97597e-13
2.71464e-13
2.47252e-13
2.25353e-13
2.06724e-13
1.92319e-13
1.79648e-13
1.6721e-13
1.52119e-13
1.35011e-13
1.11533e-13
7.85772e-14
5.22617e-14
3.62499e-14
-2.23947e-13
-1.41589e-13
2.30717e-13
4.75078e-13
5.72763e-13
6.01056e-13
5.99486e-13
5.80674e-13
5.51065e-13
5.1665e-13
4.81373e-13
4.47777e-13
4.15812e-13
3.85326e-13
3.56027e-13
3.27491e-13
2.99723e-13
2.73288e-13
2.48787e-13
2.26667e-13
2.07838e-13
1.92909e-13
1.79876e-13
1.67196e-13
1.5204e-13
1.34798e-13
1.11402e-13
7.81353e-14
5.2167e-14
3.69157e-14
-1.41844e-15
-3.18712e-14
2.6356e-13
4.95385e-13
5.86081e-13
6.10567e-13
6.0621e-13
5.85673e-13
5.54532e-13
5.19257e-13
4.84169e-13
4.50339e-13
4.18366e-13
3.87975e-13
3.5887e-13
3.30366e-13
3.02333e-13
2.75599e-13
2.5083e-13
2.28465e-13
2.0919e-13
1.93245e-13
1.80456e-13
1.67305e-13
1.51626e-13
1.34252e-13
1.11746e-13
7.72081e-14
5.03025e-14
3.94933e-14
3.17855e-13
1.06987e-13
2.99419e-13
5.22354e-13
6.04212e-13
6.22784e-13
6.14738e-13
5.91631e-13
5.59121e-13
5.22969e-13
4.87273e-13
4.53358e-13
4.21163e-13
3.90903e-13
3.62122e-13
3.33681e-13
3.05345e-13
2.78191e-13
2.53232e-13
2.30546e-13
2.10573e-13
1.94389e-13
1.81104e-13
1.67329e-13
1.51212e-13
1.33559e-13
1.11515e-13
7.60682e-14
4.75268e-14
4.33925e-14
4.15238e-13
2.0342e-13
3.59175e-13
5.52739e-13
6.24669e-13
6.37082e-13
6.2393e-13
5.9806e-13
5.63806e-13
5.27044e-13
4.90929e-13
4.5634e-13
4.24086e-13
3.94134e-13
3.65632e-13
3.37184e-13
3.08778e-13
2.8109e-13
2.55704e-13
2.3269e-13
2.12665e-13
1.95707e-13
1.8162e-13
1.67215e-13
1.51141e-13
1.332e-13
1.08607e-13
7.59594e-14
4.59959e-14
4.48674e-14
5.67937e-13
3.05496e-13
4.1476e-13
5.90185e-13
6.4572e-13
6.501e-13
6.32501e-13
6.03162e-13
5.6772e-13
5.31132e-13
4.94674e-13
4.59236e-13
4.27343e-13
3.9775e-13
3.68951e-13
3.40505e-13
3.12311e-13
2.84728e-13
2.5824e-13
2.35263e-13
2.15409e-13
1.97098e-13
1.81482e-13
1.6609e-13
1.50179e-13
1.29642e-13
1.07348e-13
8.06682e-14
4.5013e-14
4.06681e-14
6.90341e-13
3.93496e-13
4.70724e-13
6.2606e-13
6.68515e-13
6.62473e-13
6.39703e-13
6.05668e-13
5.70527e-13
5.33839e-13
4.97122e-13
4.62385e-13
4.3076e-13
4.00926e-13
3.72153e-13
3.4381e-13
3.15672e-13
2.88229e-13
2.61814e-13
2.38046e-13
2.17341e-13
1.99012e-13
1.80404e-13
1.64374e-13
1.4801e-13
1.28675e-13
1.07873e-13
8.10162e-14
4.37781e-14
3.78421e-14
7.16217e-13
4.46631e-13
5.26646e-13
6.60304e-13
6.86522e-13
6.7295e-13
6.43668e-13
6.07424e-13
5.70496e-13
5.3332e-13
4.9799e-13
4.65132e-13
4.33677e-13
4.0394e-13
3.75304e-13
3.47098e-13
3.19061e-13
2.91676e-13
2.65594e-13
2.4095e-13
2.1812e-13
1.9882e-13
1.81114e-13
1.64757e-13
1.49226e-13
1.29846e-13
1.06395e-13
8.05261e-14
4.24736e-14
3.71223e-14
7.14476e-13
4.97424e-13
5.80027e-13
6.86229e-13
6.97278e-13
6.73719e-13
6.41502e-13
6.03893e-13
5.6894e-13
5.33294e-13
4.99301e-13
4.67059e-13
4.36134e-13
4.06745e-13
3.78242e-13
3.50133e-13
3.22335e-13
2.95066e-13
2.68902e-13
2.44044e-13
2.20863e-13
2.00162e-13
1.81291e-13
1.64496e-13
1.48456e-13
1.30208e-13
1.08008e-13
7.95058e-14
4.18078e-14
3.71086e-14
7.29342e-13
5.522e-13
6.19856e-13
6.93281e-13
6.92283e-13
6.67172e-13
6.30971e-13
5.97531e-13
5.65241e-13
5.33971e-13
5.00511e-13
4.68579e-13
4.38377e-13
4.09266e-13
3.80897e-13
3.52916e-13
3.25388e-13
2.98383e-13
2.72276e-13
2.47373e-13
2.25299e-13
2.0338e-13
1.81879e-13
1.63207e-13
1.46294e-13
1.31168e-13
1.08621e-13
7.94517e-14
4.24019e-14
3.79483e-14
9.1837e-13
6.42912e-13
6.16453e-13
6.65075e-13
6.65148e-13
6.47202e-13
6.15364e-13
5.89773e-13
5.6336e-13
5.32058e-13
5.01702e-13
4.70433e-13
4.40133e-13
4.11439e-13
3.8326e-13
3.55407e-13
3.28172e-13
3.01304e-13
2.7561e-13
2.51923e-13
2.28569e-13
2.0715e-13
1.85893e-13
1.63164e-13
1.48014e-13
1.3324e-13
1.00591e-13
7.91885e-14
4.9877e-14
4.04397e-14
1.1313e-12
6.9561e-13
5.30541e-13
5.89976e-13
6.18678e-13
6.18692e-13
6.01209e-13
5.8233e-13
5.60219e-13
5.31035e-13
5.00993e-13
4.72816e-13
4.42297e-13
4.13473e-13
3.85108e-13
3.57267e-13
3.30531e-13
3.04273e-13
2.79619e-13
2.55371e-13
2.30849e-13
2.11069e-13
1.87688e-13
1.62977e-13
1.43588e-13
1.41665e-13
1.19983e-13
9.18797e-14
3.95333e-14
4.67388e-14
1.40514e-12
5.3341e-13
2.75903e-13
4.79905e-13
5.76109e-13
5.98477e-13
5.90848e-13
5.75765e-13
5.54547e-13
5.30388e-13
5.02089e-13
4.74743e-13
4.4505e-13
4.15028e-13
3.86121e-13
3.58115e-13
3.32027e-13
3.07123e-13
2.83638e-13
2.58068e-13
2.34633e-13
2.11525e-13
1.86899e-13
1.62101e-13
1.45663e-13
1.51264e-13
1.42119e-13
1.10841e-13
6.86162e-14
7.84142e-14
2.4008e-13
-5.84883e-13
6.73933e-15
4.40151e-13
5.64056e-13
5.93153e-13
5.89088e-13
5.73153e-13
5.48932e-13
5.2331e-13
5.07643e-13
4.79282e-13
4.47322e-13
4.15439e-13
3.85963e-13
3.58042e-13
3.32029e-13
3.09082e-13
2.86914e-13
2.65932e-13
2.35184e-13
2.06057e-13
1.87694e-13
1.64236e-13
1.42749e-13
1.66074e-13
1.83274e-13
1.75721e-13
1.1789e-13
1.98117e-13
-3.33129e-12
-1.33048e-12
-1.31499e-13
1.92852e-13
3.68244e-13
4.51308e-13
4.83536e-13
4.88792e-13
4.81189e-13
4.68852e-13
4.53811e-13
4.33879e-13
4.07183e-13
3.80485e-13
3.54291e-13
3.30194e-13
3.07973e-13
2.87125e-13
2.66852e-13
2.4515e-13
2.19332e-13
1.95207e-13
1.74385e-13
1.58291e-13
1.43563e-13
1.28186e-13
1.1047e-13
1.00775e-13
1.16506e-13
2.11722e-14
-2.8796e-13
-4.23151e-13
-1.15058e-13
2.10578e-13
3.80423e-13
4.5888e-13
4.88192e-13
4.92377e-13
4.85445e-13
4.73259e-13
4.52903e-13
4.30161e-13
4.08186e-13
3.81074e-13
3.54587e-13
3.30413e-13
3.07997e-13
2.87959e-13
2.64756e-13
2.40279e-13
2.20125e-13
1.9749e-13
1.74914e-13
1.56713e-13
1.41498e-13
1.2271e-13
9.77716e-14
6.39459e-14
2.71581e-14
5.88161e-14
9.19221e-13
6.19676e-13
3.34985e-13
3.61834e-13
4.41327e-13
4.88053e-13
5.04466e-13
5.04067e-13
4.93722e-13
4.76991e-13
4.54719e-13
4.30478e-13
4.07013e-13
3.80857e-13
3.55029e-13
3.3069e-13
3.07575e-13
2.85888e-13
2.62214e-13
2.38695e-13
2.18523e-13
1.97191e-13
1.76182e-13
1.5558e-13
1.37481e-13
1.16044e-13
8.63867e-14
5.07275e-14
3.5094e-14
3.67001e-14
2.38816e-12
1.45635e-12
6.96128e-13
5.47464e-13
5.35972e-13
5.37716e-13
5.32814e-13
5.21968e-13
5.0554e-13
4.83283e-13
4.57942e-13
4.30025e-13
4.05599e-13
3.8162e-13
3.55556e-13
3.30704e-13
3.07431e-13
2.8377e-13
2.57872e-13
2.36397e-13
2.16956e-13
1.97083e-13
1.76662e-13
1.55473e-13
1.36023e-13
1.14678e-13
8.57929e-14
5.61232e-14
3.92333e-14
2.56047e-14
2.27955e-12
1.66139e-12
9.37228e-13
7.01827e-13
6.2994e-13
5.94369e-13
5.68954e-13
5.43784e-13
5.18567e-13
4.90558e-13
4.6019e-13
4.3239e-13
4.06945e-13
3.81437e-13
3.55236e-13
3.30024e-13
3.05857e-13
2.81763e-13
2.56912e-13
2.33243e-13
2.14132e-13
1.96006e-13
1.76366e-13
1.57193e-13
1.38047e-13
1.15334e-13
8.67767e-14
5.61458e-14
4.00332e-14
2.81975e-14
1.81493e-12
1.469e-12
1.01136e-12
7.90274e-13
6.91705e-13
6.48273e-13
6.05674e-13
5.65957e-13
5.31058e-13
4.96874e-13
4.64549e-13
4.35787e-13
4.08052e-13
3.81314e-13
3.54794e-13
3.29096e-13
3.04116e-13
2.79494e-13
2.55125e-13
2.31959e-13
2.11175e-13
1.9364e-13
1.75837e-13
1.59914e-13
1.454e-13
1.15085e-13
7.50829e-14
6.03017e-14
4.81592e-14
2.58345e-14
1.41314e-12
1.21143e-12
9.62209e-13
8.33188e-13
7.43596e-13
6.69047e-13
6.26138e-13
5.85916e-13
5.40993e-13
5.03217e-13
4.70296e-13
4.38733e-13
4.08907e-13
3.80767e-13
3.5426e-13
3.28105e-13
3.02269e-13
2.7665e-13
2.52796e-13
2.30761e-13
2.1045e-13
1.90605e-13
1.75644e-13
1.62247e-13
1.34043e-13
1.14893e-13
9.56484e-14
6.87899e-14
4.13379e-14
2.26378e-14
1.04795e-12
1.02193e-12
9.11953e-13
8.19019e-13
7.50734e-13
6.92849e-13
6.39687e-13
5.92022e-13
5.52354e-13
5.10361e-13
4.73599e-13
4.40566e-13
4.09297e-13
3.80499e-13
3.53529e-13
3.2685e-13
3.00411e-13
2.74322e-13
2.50045e-13
2.28482e-13
2.08914e-13
1.91976e-13
1.75627e-13
1.55714e-13
1.41976e-13
1.20049e-13
9.60735e-14
6.80468e-14
4.32581e-14
2.33158e-14
1.16734e-12
1.04407e-12
8.63965e-13
7.83549e-13
7.37553e-13
6.89489e-13
6.45394e-13
6.00977e-13
5.58178e-13
5.1592e-13
4.76714e-13
4.40419e-13
4.09067e-13
3.80515e-13
3.52732e-13
3.25476e-13
2.98765e-13
2.72334e-13
2.46856e-13
2.25551e-13
2.08065e-13
1.9158e-13
1.76927e-13
1.60223e-13
1.41483e-13
1.20612e-13
9.90802e-14
6.85493e-14
4.52941e-14
2.47545e-14
1.44649e-12
1.10668e-12
8.06031e-13
7.41851e-13
7.15299e-13
6.76881e-13
6.41921e-13
6.05384e-13
5.61669e-13
5.18605e-13
4.78552e-13
4.40806e-13
4.08444e-13
3.79974e-13
3.51889e-13
3.24112e-13
2.97233e-13
2.69797e-13
2.44239e-13
2.2377e-13
2.06584e-13
1.9163e-13
1.79132e-13
1.63188e-13
1.41522e-13
1.21873e-13
1.0167e-13
6.81783e-14
4.56178e-14
2.72213e-14
1.21539e-12
1.01382e-12
7.60354e-13
7.03118e-13
6.88058e-13
6.62754e-13
6.38891e-13
6.0395e-13
5.61523e-13
5.18381e-13
4.78951e-13
4.41577e-13
4.08322e-13
3.78481e-13
3.50607e-13
3.22763e-13
2.94917e-13
2.67962e-13
2.4326e-13
2.22802e-13
2.05212e-13
1.90192e-13
1.79e-13
1.66585e-13
1.45953e-13
1.22633e-13
9.9996e-14
6.76443e-14
4.68978e-14
2.7953e-14
1.10188e-12
8.99677e-13
6.85945e-13
6.56475e-13
6.65327e-13
6.52812e-13
6.31836e-13
6.00049e-13
5.59922e-13
5.17524e-13
4.77424e-13
4.41555e-13
4.08909e-13
3.77727e-13
3.48789e-13
3.20883e-13
2.9287e-13
2.6712e-13
2.43422e-13
2.20845e-13
2.0365e-13
1.89745e-13
1.78908e-13
1.67713e-13
1.50032e-13
1.28971e-13
9.71621e-14
6.65785e-14
4.84637e-14
2.50317e-14
9.25791e-13
7.78321e-13
6.17166e-13
6.21699e-13
6.46564e-13
6.38591e-13
6.2367e-13
5.96177e-13
5.57811e-13
5.15618e-13
4.76736e-13
4.41717e-13
4.08435e-13
3.77004e-13
3.47764e-13
3.19477e-13
2.91821e-13
2.65805e-13
2.42489e-13
2.21032e-13
2.02148e-13
1.89503e-13
1.79906e-13
1.6869e-13
1.51012e-13
1.29569e-13
1.00496e-13
6.52198e-14
4.98092e-14
2.55343e-14
8.29524e-13
7.06178e-13
5.7231e-13
5.946e-13
6.27413e-13
6.25475e-13
6.16242e-13
5.92692e-13
5.5536e-13
5.1419e-13
4.7672e-13
4.41632e-13
4.08017e-13
3.76827e-13
3.47283e-13
3.18772e-13
2.91258e-13
2.65261e-13
2.416e-13
2.20903e-13
2.02452e-13
1.89001e-13
1.80727e-13
1.69604e-13
1.51145e-13
1.30135e-13
1.04007e-13
6.48577e-14
4.94534e-14
2.54102e-14
8.46614e-13
6.89856e-13
5.42787e-13
5.73265e-13
6.12731e-13
6.16583e-13
6.11476e-13
5.90009e-13
5.53965e-13
5.13557e-13
4.76174e-13
4.41725e-13
4.08566e-13
3.77256e-13
3.47524e-13
3.189e-13
2.91398e-13
2.65455e-13
2.41867e-13
2.20339e-13
2.02326e-13
1.89324e-13
1.81313e-13
1.7015e-13
1.51308e-13
1.30846e-13
1.05697e-13
6.56877e-14
4.94598e-14
2.5152e-14
8.49709e-13
6.82027e-13
5.29442e-13
5.62916e-13
6.05682e-13
6.1236e-13
6.09235e-13
5.88901e-13
5.53622e-13
5.13742e-13
4.76478e-13
4.42305e-13
4.09552e-13
3.78331e-13
3.48626e-13
3.19953e-13
2.92335e-13
2.66247e-13
2.42446e-13
2.2049e-13
2.02614e-13
1.89697e-13
1.81626e-13
1.7039e-13
1.51504e-13
1.31283e-13
1.06419e-13
6.63414e-14
4.96885e-14
2.50846e-14
8.10061e-13
6.68602e-13
5.3113e-13
5.64457e-13
6.0714e-13
6.1329e-13
6.09784e-13
5.89686e-13
5.54501e-13
5.14665e-13
4.78004e-13
4.4385e-13
4.1083e-13
3.80013e-13
3.50587e-13
3.21926e-13
2.94031e-13
2.67482e-13
2.43339e-13
2.21832e-13
2.03262e-13
1.89935e-13
1.81727e-13
1.70396e-13
1.51562e-13
1.31144e-13
1.06433e-13
6.68109e-14
5.00591e-14
2.51802e-14
7.99835e-13
6.78095e-13
5.46945e-13
5.75021e-13
6.15401e-13
6.19316e-13
6.1364e-13
5.92233e-13
5.56876e-13
5.16801e-13
4.80054e-13
4.45598e-13
4.13028e-13
3.82422e-13
3.53354e-13
3.24749e-13
2.9648e-13
2.69485e-13
2.44799e-13
2.23206e-13
2.04109e-13
1.90658e-13
1.81667e-13
1.70067e-13
1.51487e-13
1.30385e-13
1.05205e-13
6.77988e-14
5.07439e-14
2.52272e-14
9.10066e-13
7.40741e-13
5.77495e-13
5.90206e-13
6.27611e-13
6.3031e-13
6.20542e-13
5.96023e-13
5.60355e-13
5.20518e-13
4.81998e-13
4.48081e-13
4.15974e-13
3.85487e-13
3.56712e-13
3.28263e-13
2.99491e-13
2.7211e-13
2.47443e-13
2.24011e-13
2.05065e-13
1.92e-13
1.81555e-13
1.69421e-13
1.51042e-13
1.2928e-13
1.01999e-13
6.99326e-14
5.19982e-14
2.51071e-14
9.6665e-13
7.96494e-13
6.27987e-13
6.23085e-13
6.41701e-13
6.40824e-13
6.28994e-13
6.01185e-13
5.64281e-13
5.24644e-13
4.86325e-13
4.50405e-13
4.1891e-13
3.88778e-13
3.60679e-13
3.32393e-13
3.02919e-13
2.75283e-13
2.4924e-13
2.25647e-13
2.07688e-13
1.9284e-13
1.81909e-13
1.69082e-13
1.49577e-13
1.25672e-13
1.00973e-13
7.10405e-14
5.10251e-14
2.62248e-14
8.84829e-13
8.14935e-13
6.85381e-13
6.6506e-13
6.67713e-13
6.5164e-13
6.34377e-13
6.07429e-13
5.69074e-13
5.28893e-13
4.90774e-13
4.53669e-13
4.20883e-13
3.92866e-13
3.64993e-13
3.36291e-13
3.07656e-13
2.7789e-13
2.50618e-13
2.28683e-13
2.10206e-13
1.94383e-13
1.82652e-13
1.67418e-13
1.45157e-13
1.24728e-13
1.03054e-13
7.10556e-14
4.73575e-14
2.66457e-14
9.20265e-13
8.47426e-13
7.32371e-13
7.03478e-13
6.93348e-13
6.67973e-13
6.41505e-13
6.11084e-13
5.73078e-13
5.33055e-13
4.94293e-13
4.56443e-13